# LAMMPS data file for rigid bodies

303 atoms

1 atom types

0.0 	 20.0 	 xlo xhi 
0.0 	 20.0 	 ylo yhi 
-1.0 	 1.0 	 zlo zhi 

Atoms

116 1 0.418074 79.5 8.50937 13.6967 0 
141 1 0.417537 79.5 9.17007 13.7429 0 
290 1 0.417552 79.5 10.1578 13.419 0 
142 1 0.376502 79.5 10.8258 13.5672 0 
159 1 0.418141 79.5 11.5563 13.5833 0 
300 1 0.417817 79.5 8.13944 14.1973 0 
248 1 0.417624 79.5 9.76368 13.878 0 
138 1 0.417163 79.5 10.4202 13.9731 0 
77 1 0.416408 79.5 11.1636 14.0407 0 
82 1 0.37548 79.5 11.7859 14.1312 0 
187 1 0.376835 79.5 7.5221 14.2467 0 
156 1 0.41736 79.5 8.7587 14.248 0 
154 1 0.377463 79.5 9.29584 14.3118 0 
137 1 0.377547 79.5 9.79395 14.4017 0 
206 1 0.377502 79.5 10.2665 14.4605 0 
104 1 0.417492 79.5 10.7969 14.4359 0 
28 1 0.376324 79.5 11.3777 14.5429 0 
5 1 0.417956 79.5 11.9298 14.6466 0 
139 1 0.377813 79.5 12.4056 14.2939 0 
95 1 0.378511 79.5 12.9823 14.6284 0 
211 1 0.376915 79.5 6.78175 14.7274 0 
78 1 0.376793 79.5 7.33776 14.7775 0 
271 1 0.419038 79.5 7.90142 14.7277 0 
227 1 0.419731 79.5 8.45326 14.7167 0 
172 1 0.377906 79.5 8.99101 14.7541 0 
235 1 0.417949 79.5 9.49894 14.8124 0 
55 1 0.377258 79.5 9.98829 14.8849 0 
246 1 0.419558 79.5 10.5 14.8943 0 
109 1 0.416555 79.5 11.0198 14.9238 0 
131 1 0.37743 79.5 11.5259 15.0279 0 
195 1 0.376076 79.5 12.4748 14.8629 0 
19 1 0.377048 79.5 13.5147 14.9959 0 
292 1 0.419322 79.5 5.99931 15.2792 0 
34 1 0.376733 79.5 6.61288 15.2617 0 
76 1 0.376361 79.5 7.14431 15.2712 0 
56 1 0.417661 79.5 7.67065 15.2199 0 
37 1 0.376521 79.5 8.20284 15.191 0 
215 1 0.417318 79.5 8.71503 15.184 0 
250 1 0.419005 79.5 9.22732 15.2301 0 
96 1 0.375974 79.5 9.71329 15.2882 0 
225 1 0.418808 79.5 10.1983 15.3218 0 
144 1 0.417225 79.5 10.692 15.3486 0 
270 1 0.377661 79.5 11.1745 15.3889 0 
239 1 0.376202 79.5 11.6505 15.4877 0 
60 1 0.378985 79.5 12.0262 15.1414 0 
205 1 0.417837 79.5 12.5198 15.3896 0 
277 1 0.378085 79.5 12.9949 15.2043 0 
256 1 0.417029 79.5 13.9786 15.4267 0 
180 1 0.4178 79.5 5.72587 15.8912 0 
279 1 0.419009 79.5 6.37035 15.7573 0 
61 1 0.416969 79.5 6.92811 15.7481 0 
249 1 0.37714 79.5 7.45119 15.6965 0 
74 1 0.418792 79.5 7.96345 15.6431 0 
150 1 0.42017 79.5 8.47202 15.6294 0 
226 1 0.418002 79.5 8.96828 15.6418 0 
91 1 0.375891 79.5 9.46151 15.6694 0 
14 1 0.378044 79.5 9.93096 15.712 0 
234 1 0.376567 79.5 10.3913 15.7536 0 
20 1 0.418644 79.5 10.8631 15.7899 0 
149 1 0.420339 79.5 11.3515 15.8273 0 
81 1 0.377631 79.5 12.079 15.6051 0 
57 1 0.417312 79.5 12.4135 15.9289 0 
98 1 0.376685 79.5 12.8827 15.7616 0 
236 1 0.417091 79.5 13.3931 15.591 0 
112 1 0.37724 79.5 14.3349 15.9237 0 
264 1 0.375728 79.5 5.17591 16.2904 0 
62 1 0.419478 79.5 6.1969 16.2593 0 
251 1 0.418401 79.5 6.73204 16.2372 0 
103 1 0.376732 79.5 7.25777 16.1468 0 
231 1 0.418206 79.5 7.74704 16.1013 0 
36 1 0.41802 79.5 8.24251 16.0664 0 
44 1 0.376441 79.5 8.72889 16.0515 0 
128 1 0.417636 79.5 9.20396 16.0601 0 
259 1 0.416952 79.5 9.6785 16.0871 0 
93 1 0.375858 79.5 10.1336 16.1267 0 
207 1 0.375123 79.5 10.5703 16.1569 0 
275 1 0.375236 79.5 11.0359 16.2035 0 
193 1 0.377638 79.5 11.476 16.2426 0 
86 1 0.418347 79.5 11.8741 16.0163 0 
303 1 0.377701 79.5 12.2401 16.3632 0 
295 1 0.376364 79.5 12.7349 16.2765 0 
6 1 0.41784 79.5 13.2223 16.1332 0 
16 1 0.418857 79.5 13.7696 16.0179 0 
66 1 0.417743 79.5 14.7054 16.3805 0 
70 1 0.418537 79.5 4.77148 16.8097 0 
223 1 0.377582 79.5 5.67173 16.4981 0 
100 1 0.41738 79.5 6.1053 16.7606 0 
88 1 0.377633 79.5 6.5932 16.7236 0 
111 1 0.377387 79.5 7.09776 16.5775 0 
147 1 0.378206 79.5 7.56575 16.537 0 
273 1 0.375407 79.5 8.02999 16.4946 0 
197 1 0.418138 79.5 8.30818 16.8634 0 
52 1 0.417492 79.5 8.50813 16.4579 0 
113 1 0.376209 79.5 8.75892 16.861 0 
247 1 0.417974 79.5 8.96857 16.4624 0 
48 1 0.417895 79.5 9.20571 16.8657 0 
53 1 0.418687 79.5 9.43672 16.4819 0 
73 1 0.418056 79.5 9.88872 16.5151 0 
299 1 0.376562 79.5 10.3211 16.527 0 
18 1 0.417229 79.5 10.7716 16.5471 0 
72 1 0.418442 79.5 11.2659 16.6109 0 
289 1 0.377045 79.5 11.8012 16.4982 0 
2 1 0.418632 79.5 12.1363 16.8151 0 
35 1 0.375085 79.5 12.5761 16.7071 0 
110 1 0.376982 79.5 13.0541 16.6231 0 
203 1 0.418748 79.5 13.5582 16.5338 0 
105 1 0.378261 79.5 14.1047 16.4623 0 
244 1 0.377185 79.5 15.0274 16.8812 0 
257 1 0.417584 79.5 5.3444 16.9536 0 
7 1 0.376836 79.5 5.82224 17.1573 0 
54 1 0.417762 79.5 6.3457 17.2034 0 
85 1 0.378114 79.5 6.94899 16.9962 0 
13 1 0.376492 79.5 7.39635 16.9561 0 
64 1 0.37804 79.5 7.84039 16.9031 0 
170 1 0.419066 79.5 8.11027 17.2639 0 
168 1 0.377281 79.5 8.56296 17.2416 0 
281 1 0.419313 79.5 8.98921 17.2519 0 
67 1 0.375259 79.5 9.64431 16.8919 0 
204 1 0.417908 79.5 9.42736 17.2689 0 
134 1 0.377548 79.5 10.0621 16.9175 0 
125 1 0.417497 79.5 9.84403 17.2955 0 
119 1 0.418318 79.5 10.4857 16.9226 0 
39 1 0.417739 79.5 10.2714 17.3155 0 
153 1 0.418903 79.5 10.9253 16.956 0 
242 1 0.419369 79.5 10.6951 17.3313 0 
214 1 0.375802 79.5 11.3287 17.0227 0 
278 1 0.377425 79.5 11.7009 16.9019 0 
237 1 0.377021 79.5 11.9685 17.2491 0 
23 1 0.377532 79.5 12.4032 17.167 0 
291 1 0.418671 79.5 12.8649 17.0678 0 
126 1 0.377564 79.5 13.3464 17.0024 0 
43 1 0.416658 79.5 13.8707 16.9444 0 
158 1 0.378408 79.5 14.4243 16.8969 0 
90 1 0.418215 79.5 4.3471 17.3894 0 
254 1 0.418928 79.5 4.94475 17.427 0 
1 1 0.416656 79.5 5.47875 17.54 0 
25 1 0.418251 79.5 6.00428 17.6214 0 
232 1 0.41966 79.5 6.47341 17.7285 0 
136 1 0.377551 79.5 6.7657 17.3775 0 
124 1 0.377489 79.5 7.21147 17.3821 0 
196 1 0.417674 79.5 7.64816 17.3392 0 
175 1 0.375285 79.5 7.93358 17.6597 0 
152 1 0.419353 79.5 8.3806 17.6287 0 
224 1 0.417151 79.5 8.81107 17.6439 0 
99 1 0.418162 79.5 9.24456 17.6547 0 
143 1 0.378123 79.5 9.64698 17.6873 0 
202 1 0.416907 79.5 10.0524 17.6887 0 
46 1 0.377328 79.5 10.4806 17.7052 0 
106 1 0.418321 79.5 10.8998 17.7141 0 
65 1 0.375901 79.5 11.1221 17.3655 0 
233 1 0.376541 79.5 11.3491 17.7001 0 
269 1 0.377027 79.5 11.5584 17.3417 0 
10 1 0.377297 79.5 11.7911 17.6585 0 
31 1 0.376295 79.5 12.222 17.5873 0 
240 1 0.417923 79.5 12.6737 17.5161 0 
167 1 0.376423 79.5 13.1417 17.4429 0 
182 1 0.376421 79.5 13.6194 17.377 0 
297 1 0.418019 79.5 14.1712 17.3658 0 
208 1 0.376279 79.5 13.8818 17.7569 0 
130 1 0.41741 79.5 14.7362 17.3706 0 
179 1 0.419049 79.5 15.3274 17.4359 0 
265 1 0.4186 79.5 4.56417 17.9718 0 
219 1 0.416465 79.5 5.14609 17.9766 0 
183 1 0.418934 79.5 5.70357 18.0336 0 
243 1 0.376024 79.5 6.19505 18.1118 0 
294 1 0.420196 79.5 6.97199 17.7851 0 
157 1 0.417922 79.5 6.68439 18.1626 0 
162 1 0.417925 79.5 7.43906 17.7867 0 
217 1 0.420187 79.5 7.17081 18.2052 0 
117 1 0.376414 79.5 7.78003 18.0215 0 
210 1 0.417016 79.5 8.20541 18.0166 0 
201 1 0.37868 79.5 8.63346 18.0195 0 
177 1 0.417786 79.5 9.05398 18.0315 0 
222 1 0.376423 79.5 9.46308 18.049 0 
228 1 0.377094 79.5 9.85064 18.0638 0 
40 1 0.417655 79.5 10.2613 18.0529 0 
151 1 0.377236 79.5 10.69 18.0678 0 
198 1 0.418579 79.5 11.1305 18.063 0 
268 1 0.418081 79.5 11.5851 18.0428 0 
164 1 0.419166 79.5 12.0359 17.9949 0 
181 1 0.377496 79.5 12.4846 17.93 0 
274 1 0.37582 79.5 12.9374 17.8663 0 
29 1 0.417393 79.5 13.2136 18.2126 0 
115 1 0.377962 79.5 13.4067 17.7964 0 
185 1 0.37559 79.5 13.6764 18.1749 0 
79 1 0.376387 79.5 14.1417 18.1351 0 
241 1 0.375449 79.5 14.443 17.8018 0 
24 1 0.416559 79.5 14.9421 17.941 0 
286 1 0.417076 79.5 15.5651 18.011 0 
258 1 0.419432 79.5 4.19037 18.4803 0 
263 1 0.375892 79.5 4.8597 18.453 0 
4 1 0.418796 79.5 5.40578 18.4491 0 
298 1 0.374614 79.5 5.92475 18.4921 0 
200 1 0.417021 79.5 6.40537 18.5455 0 
260 1 0.417822 79.5 6.87676 18.593 0 
189 1 0.374207 79.5 7.57081 18.342 0 
97 1 0.377275 79.5 7.98914 18.3806 0 
188 1 0.417316 79.5 8.4309 18.3857 0 
213 1 0.418946 79.5 8.85542 18.4012 0 
108 1 0.37715 79.5 9.26587 18.4034 0 
51 1 0.378133 79.5 9.65691 18.4097 0 
280 1 0.376116 79.5 10.0574 18.4155 0 
178 1 0.415965 79.5 10.4774 18.407 0 
287 1 0.378509 79.5 10.9145 18.407 0 
102 1 0.419434 79.5 11.3596 18.4156 0 
9 1 0.378113 79.5 11.8236 18.3851 0 
255 1 0.419607 79.5 12.292 18.3364 0 
80 1 0.376209 79.5 12.7449 18.2659 0 
221 1 0.419252 79.5 13.0242 18.6234 0 
17 1 0.37517 79.5 13.5001 18.5819 0 
272 1 0.378957 79.5 13.9811 18.54 0 
174 1 0.419338 79.5 14.559 18.3834 0 
191 1 0.419678 79.5 15.1642 18.4567 0 
173 1 0.377039 79.5 15.7881 18.5972 0 
120 1 0.378184 79.5 4.56841 18.9051 0 
169 1 0.378453 79.5 5.14216 18.8845 0 
212 1 0.41762 79.5 5.6575 18.8987 0 
148 1 0.418606 79.5 6.15423 18.9373 0 
245 1 0.376779 79.5 6.62566 18.9816 0 
186 1 0.417704 79.5 7.06528 19.0326 0 
42 1 0.418538 79.5 7.32245 18.6743 0 
163 1 0.376966 79.5 7.52595 19.0685 0 
75 1 0.376447 79.5 7.75873 18.7226 0 
129 1 0.417621 79.5 7.95891 19.096 0 
59 1 0.419658 79.5 8.19629 18.735 0 
118 1 0.41851 79.5 8.40508 19.0974 0 
132 1 0.378247 79.5 8.64036 18.7532 0 
140 1 0.378892 79.5 9.05209 18.7594 0 
69 1 0.376926 79.5 9.44779 18.7464 0 
94 1 0.419162 79.5 9.64386 19.0914 0 
261 1 0.377169 79.5 9.85382 18.7444 0 
121 1 0.418093 79.5 10.0577 19.0853 0 
68 1 0.37735 79.5 10.2692 18.7474 0 
92 1 0.417624 79.5 10.4737 19.091 0 
262 1 0.418034 79.5 10.7096 18.7483 0 
22 1 0.376996 79.5 11.1325 18.7501 0 
230 1 0.376846 79.5 11.2969 19.0892 0 
58 1 0.415805 79.5 11.61 18.7483 0 
229 1 0.41843 79.5 12.0769 18.7195 0 
155 1 0.37768 79.5 12.4277 19.0609 0 
190 1 0.417687 79.5 12.5638 18.676 0 
266 1 0.376034 79.5 12.8569 19.0258 0 
127 1 0.417806 79.5 13.3098 18.9921 0 
282 1 0.416306 79.5 13.7909 18.9519 0 
30 1 0.376677 79.5 14.2944 18.8722 0 
160 1 0.418475 79.5 14.7981 18.8483 0 
107 1 0.375813 79.5 15.4025 18.979 0 
84 1 0.417941 79.5 4.13092 19.3139 0 
33 1 0.378072 79.5 4.87682 19.298 0 
71 1 0.377916 79.5 5.40212 19.3158 0 
199 1 0.417759 79.5 5.90335 19.3483 0 
166 1 0.418977 79.5 6.38923 19.3703 0 
252 1 0.378093 79.5 6.8448 19.4094 0 
122 1 0.41785 79.5 7.29045 19.4227 0 
63 1 0.377654 79.5 7.74209 19.4394 0 
218 1 0.418811 79.5 8.20049 19.4605 0 
184 1 0.417741 79.5 8.82073 19.1195 0 
87 1 0.377593 79.5 8.62165 19.4671 0 
296 1 0.418792 79.5 9.23422 19.1166 0 
15 1 0.377305 79.5 9.0487 19.4687 0 
12 1 0.37772 79.5 9.43539 19.4749 0 
293 1 0.417075 79.5 9.83012 19.4592 0 
47 1 0.418289 79.5 10.2471 19.4529 0 
276 1 0.417911 79.5 10.6642 19.4583 0 
192 1 0.418338 79.5 10.9019 19.1152 0 
283 1 0.377483 79.5 11.058 19.4799 0 
209 1 0.419672 79.5 11.4521 19.4684 0 
41 1 0.375472 79.5 11.67 19.1359 0 
11 1 0.377588 79.5 11.8584 19.483 0 
101 1 0.376457 79.5 12.0431 19.1143 0 
302 1 0.377055 79.5 12.2536 19.4489 0 
49 1 0.419815 79.5 12.6814 19.4149 0 
165 1 0.417616 79.5 13.1223 19.4123 0 
45 1 0.41618 79.5 13.5815 19.3833 0 
267 1 0.418107 79.5 14.0718 19.336 0 
220 1 0.375738 79.5 14.538 19.3001 0 
176 1 0.376448 79.5 15.0321 19.2941 0 
146 1 0.418691 79.5 15.886 19.3539 0 
50 1 0.378881 79.5 4.5583 19.6946 0 
123 1 0.416947 79.5 5.12428 19.7326 0 
21 1 0.420824 79.5 5.65023 19.7551 0 
135 1 0.377153 79.5 6.1462 19.7745 0 
161 1 0.416955 79.5 6.61632 19.7871 0 
32 1 0.375477 79.5 7.06977 19.8031 0 
301 1 0.41979 79.5 7.51663 19.795 0 
194 1 0.416887 79.5 7.9632 19.8007 0 
38 1 0.377736 79.5 8.41196 19.8165 0 
145 1 0.419666 79.5 8.83521 19.8026 0 
27 1 0.375782 79.5 9.24817 19.8184 0 
8 1 0.378024 79.5 9.63189 19.8198 0 
253 1 0.415824 79.5 10.0369 19.8119 0 
133 1 0.418748 79.5 10.4524 19.8121 0 
216 1 0.376432 79.5 10.8493 19.8192 0 
284 1 0.376238 79.5 11.2355 19.8199 0 
285 1 0.37676 79.5 11.6377 19.8199 0 
89 1 0.376485 79.5 12.0473 19.817 0 
26 1 0.417817 79.5 12.4735 19.797 0 
288 1 0.377512 79.5 12.9119 19.8071 0 
114 1 0.376368 79.5 13.3537 19.7961 0 
171 1 0.417726 79.5 13.8288 19.774 0 
3 1 0.376593 79.5 14.3091 19.7541 0 
83 1 0.419111 79.5 14.8074 19.7331 0 
238 1 0.417818 79.5 15.3926 19.6748 0 
