# LAMMPS data file for rigid bodies

303 atoms

1 atom types

0.0 	 20.0 	 xlo xhi 
0.0 	 20.0 	 ylo yhi 
-1.0 	 1.0 	 zlo zhi 

Atoms

141 1 0.417537 79.5 8.6598 13.542 0 
248 1 0.417624 79.5 9.3049 13.5012 0 
142 1 0.376502 79.5 9.92698 13.5112 0 
159 1 0.418141 79.5 10.5924 13.5162 0 
156 1 0.41736 79.5 7.825 13.9709 0 
154 1 0.377463 79.5 8.43262 14.0633 0 
137 1 0.377547 79.5 9.01071 14.0578 0 
290 1 0.417552 79.5 9.56802 14.0297 0 
138 1 0.417163 79.5 10.1702 14.0171 0 
77 1 0.416408 79.5 10.7739 14.073 0 
82 1 0.37548 79.5 11.3326 13.9009 0 
5 1 0.417956 79.5 11.982 13.818 0 
116 1 0.418074 79.5 7.07238 14.3305 0 
78 1 0.376793 79.5 7.60929 14.5273 0 
271 1 0.419038 79.5 8.14484 14.5204 0 
300 1 0.417817 79.5 8.72625 14.5286 0 
206 1 0.377502 79.5 9.26082 14.5254 0 
215 1 0.417318 79.5 9.80122 14.5061 0 
246 1 0.419558 79.5 10.3392 14.5205 0 
131 1 0.37743 79.5 10.8322 14.5839 0 
28 1 0.376324 79.5 11.3054 14.4497 0 
104 1 0.417492 79.5 11.846 14.3817 0 
195 1 0.376076 79.5 12.4162 14.3911 0 
139 1 0.377813 79.5 13.0072 14.4268 0 
76 1 0.376361 79.5 6.71822 14.8255 0 
56 1 0.417661 79.5 7.28726 14.9646 0 
227 1 0.419731 79.5 7.8642 15.0169 0 
74 1 0.418792 79.5 8.42055 14.9739 0 
172 1 0.377906 79.5 8.97212 14.9718 0 
235 1 0.417949 79.5 9.51378 14.9537 0 
225 1 0.418808 79.5 10.0543 14.966 0 
270 1 0.377661 79.5 10.5669 14.988 0 
96 1 0.375974 79.5 11.1146 14.9563 0 
109 1 0.416555 79.5 11.6369 14.8814 0 
81 1 0.377631 79.5 12.1598 14.8847 0 
60 1 0.378985 79.5 12.7035 14.9107 0 
95 1 0.378511 79.5 13.2671 14.9589 0 
277 1 0.378085 79.5 13.8587 14.9988 0 
211 1 0.376915 79.5 6.20617 15.1719 0 
187 1 0.376835 79.5 6.73086 15.3641 0 
251 1 0.418401 79.5 7.22228 15.4816 0 
147 1 0.378206 79.5 7.69908 15.4924 0 
231 1 0.418206 79.5 8.18934 15.4545 0 
226 1 0.418002 79.5 8.68759 15.3945 0 
91 1 0.375891 79.5 9.24237 15.343 0 
55 1 0.377258 79.5 9.78186 15.3593 0 
250 1 0.419005 79.5 10.3141 15.399 0 
144 1 0.417225 79.5 10.8587 15.3667 0 
149 1 0.420339 79.5 11.4179 15.3381 0 
239 1 0.376202 79.5 11.9196 15.3439 0 
86 1 0.418347 79.5 12.427 15.3513 0 
295 1 0.376364 79.5 12.9779 15.408 0 
16 1 0.418857 79.5 13.5475 15.487 0 
19 1 0.377048 79.5 14.1657 15.5557 0 
34 1 0.376733 79.5 5.85313 15.6397 0 
279 1 0.419009 79.5 6.40091 15.7828 0 
62 1 0.419478 79.5 6.92962 15.9049 0 
249 1 0.37714 79.5 7.44816 15.9439 0 
150 1 0.42017 79.5 7.93924 15.9163 0 
36 1 0.41802 79.5 8.43846 15.89 0 
247 1 0.417974 79.5 8.98773 15.7385 0 
128 1 0.417636 79.5 9.48772 15.7288 0 
37 1 0.376521 79.5 9.93806 15.7733 0 
14 1 0.378044 79.5 10.3501 15.8392 0 
234 1 0.376567 79.5 10.7568 15.8019 0 
20 1 0.418644 79.5 11.2106 15.7591 0 
193 1 0.377638 79.5 11.7009 15.7658 0 
303 1 0.377701 79.5 12.1684 15.7894 0 
6 1 0.41784 79.5 12.673 15.8119 0 
98 1 0.376685 79.5 13.2181 15.8903 0 
292 1 0.419322 79.5 5.55307 16.126 0 
180 1 0.4178 79.5 6.13491 16.2422 0 
223 1 0.377582 79.5 6.66429 16.3166 0 
103 1 0.376732 79.5 7.18149 16.3433 0 
273 1 0.375407 79.5 7.68322 16.3449 0 
52 1 0.417492 79.5 8.16227 16.3412 0 
113 1 0.376209 79.5 8.79869 16.1394 0 
259 1 0.416952 79.5 9.2512 16.1333 0 
93 1 0.375858 79.5 9.69725 16.1532 0 
275 1 0.375236 79.5 10.1183 16.1988 0 
207 1 0.375123 79.5 10.556 16.2164 0 
18 1 0.417229 79.5 10.9962 16.1937 0 
72 1 0.418442 79.5 11.4646 16.1707 0 
289 1 0.377045 79.5 11.935 16.1917 0 
110 1 0.376982 79.5 12.3912 16.2235 0 
203 1 0.418748 79.5 12.8917 16.2618 0 
112 1 0.37724 79.5 13.4314 16.3506 0 
57 1 0.417312 79.5 13.8097 16.0047 0 
205 1 0.417837 79.5 14.4506 16.0967 0 
264 1 0.375728 79.5 5.29035 16.6172 0 
61 1 0.416969 79.5 5.85892 16.6927 0 
54 1 0.417762 79.5 6.40734 16.7413 0 
124 1 0.377489 79.5 6.91367 16.7339 0 
111 1 0.377387 79.5 7.42952 16.7216 0 
85 1 0.378114 79.5 7.90194 16.7425 0 
64 1 0.37804 79.5 8.32814 16.817 0 
13 1 0.376492 79.5 8.57336 16.4761 0 
196 1 0.417674 79.5 8.77505 16.8772 0 
44 1 0.376441 79.5 9.01664 16.5189 0 
48 1 0.417895 79.5 9.45738 16.5414 0 
53 1 0.418687 79.5 9.89023 16.5739 0 
73 1 0.418056 79.5 10.3358 16.5935 0 
299 1 0.376562 79.5 10.7717 16.5906 0 
214 1 0.375802 79.5 11.213 16.578 0 
2 1 0.418632 79.5 11.6763 16.5803 0 
278 1 0.377425 79.5 12.1401 16.6134 0 
35 1 0.375085 79.5 12.5922 16.6427 0 
126 1 0.377564 79.5 13.0905 16.6821 0 
105 1 0.378261 79.5 13.623 16.7952 0 
256 1 0.417029 79.5 14.0416 16.515 0 
236 1 0.417091 79.5 14.8232 16.5849 0 
257 1 0.417584 79.5 4.9621 17.0667 0 
100 1 0.41738 79.5 5.57228 17.1351 0 
88 1 0.377633 79.5 6.14052 17.1532 0 
136 1 0.377551 79.5 6.66854 17.1687 0 
25 1 0.418251 79.5 7.17474 17.1117 0 
152 1 0.419353 79.5 7.65295 17.1287 0 
170 1 0.419066 79.5 8.10229 17.1869 0 
162 1 0.417925 79.5 8.54313 17.2465 0 
281 1 0.419313 79.5 9.22672 16.9186 0 
197 1 0.418138 79.5 8.98961 17.2934 0 
168 1 0.377281 79.5 9.66111 16.9507 0 
125 1 0.417497 79.5 9.42596 17.3193 0 
67 1 0.375259 79.5 10.0858 16.9583 0 
204 1 0.417908 79.5 9.85884 17.3326 0 
134 1 0.377548 79.5 10.5236 16.969 0 
39 1 0.417739 79.5 10.2832 17.3249 0 
119 1 0.418318 79.5 10.9635 16.9645 0 
153 1 0.418903 79.5 11.4101 16.9677 0 
291 1 0.418671 79.5 11.8753 16.9944 0 
269 1 0.377027 79.5 12.3349 17.0262 0 
43 1 0.416658 79.5 12.7959 17.0565 0 
167 1 0.376423 79.5 13.2758 17.0839 0 
158 1 0.378408 79.5 13.9283 17.162 0 
244 1 0.377185 79.5 14.3726 16.9214 0 
66 1 0.417743 79.5 14.9595 17.185 0 
70 1 0.418537 79.5 4.64937 17.5624 0 
7 1 0.376836 79.5 5.28942 17.5709 0 
254 1 0.418928 79.5 5.8728 17.5789 0 
232 1 0.41966 79.5 6.39628 17.5746 0 
175 1 0.375285 79.5 6.97845 17.5051 0 
117 1 0.376414 79.5 7.44189 17.5179 0 
294 1 0.420196 79.5 7.87951 17.5761 0 
224 1 0.417151 79.5 8.32467 17.6259 0 
177 1 0.417786 79.5 8.76416 17.6585 0 
143 1 0.378123 79.5 9.20353 17.6822 0 
40 1 0.417655 79.5 9.6321 17.7053 0 
228 1 0.377094 79.5 10.0489 17.7159 0 
198 1 0.418579 79.5 10.4677 17.6993 0 
268 1 0.418081 79.5 10.7288 17.3438 0 
65 1 0.375901 79.5 10.9145 17.7105 0 
151 1 0.377236 79.5 11.1601 17.3489 0 
233 1 0.376541 79.5 11.3331 17.703 0 
46 1 0.377328 79.5 11.5908 17.3486 0 
242 1 0.419369 79.5 11.7903 17.7032 0 
10 1 0.377297 79.5 12.0723 17.3732 0 
23 1 0.377532 79.5 12.2539 17.7414 0 
237 1 0.377021 79.5 12.538 17.4325 0 
297 1 0.418019 79.5 13.0235 17.4782 0 
182 1 0.376421 79.5 13.5278 17.4308 0 
208 1 0.376279 79.5 13.9831 17.6463 0 
130 1 0.41741 79.5 14.445 17.4372 0 
179 1 0.419049 79.5 15.4436 17.5885 0 
90 1 0.418215 79.5 4.33057 18.1018 0 
1 1 0.416656 79.5 5.00878 18.0264 0 
183 1 0.418934 79.5 5.59408 18.0033 0 
219 1 0.416465 79.5 6.14793 18.029 0 
157 1 0.417922 79.5 6.75481 17.8726 0 
188 1 0.417316 79.5 7.25021 17.8967 0 
189 1 0.374207 79.5 7.69793 17.9495 0 
222 1 0.376423 79.5 8.13002 17.9884 0 
201 1 0.37868 79.5 8.55006 18.0233 0 
99 1 0.418162 79.5 8.9795 18.0344 0 
202 1 0.416907 79.5 9.4137 18.061 0 
51 1 0.378133 79.5 9.83118 18.0747 0 
280 1 0.376116 79.5 10.2363 18.0623 0 
106 1 0.418321 79.5 10.6721 18.0603 0 
22 1 0.376996 79.5 11.0995 18.0589 0 
102 1 0.419434 79.5 11.5286 18.0632 0 
164 1 0.419166 79.5 11.984 18.088 0 
181 1 0.377496 79.5 12.4215 18.1121 0 
31 1 0.376295 79.5 12.7177 17.8385 0 
115 1 0.377962 79.5 13.1445 17.8999 0 
241 1 0.375449 79.5 13.5637 17.8538 0 
191 1 0.419678 79.5 13.9072 18.1504 0 
286 1 0.417076 79.5 14.3871 17.9752 0 
173 1 0.377039 79.5 14.8807 17.7957 0 
146 1 0.418691 79.5 15.2986 18.1942 0 
265 1 0.4186 79.5 4.74168 18.5215 0 
263 1 0.375892 79.5 5.33718 18.4392 0 
4 1 0.418796 79.5 5.84958 18.45 0 
217 1 0.420187 79.5 6.3014 18.5972 0 
243 1 0.376024 79.5 6.5541 18.2493 0 
186 1 0.417704 79.5 7.01774 18.2807 0 
200 1 0.417021 79.5 6.78594 18.6643 0 
42 1 0.418538 79.5 7.48041 18.3164 0 
210 1 0.417016 79.5 7.9254 18.3428 0 
97 1 0.377275 79.5 8.35782 18.3671 0 
132 1 0.378247 79.5 8.77361 18.3891 0 
213 1 0.418946 79.5 9.18591 18.4162 0 
287 1 0.378509 79.5 9.60239 18.4257 0 
262 1 0.418034 79.5 10.0153 18.4304 0 
92 1 0.417624 79.5 10.433 18.4112 0 
178 1 0.415965 79.5 10.8757 18.4214 0 
190 1 0.417687 79.5 11.293 18.4294 0 
255 1 0.419607 79.5 11.7238 18.4504 0 
272 1 0.378957 79.5 12.1469 18.4696 0 
80 1 0.376209 79.5 12.5559 18.4703 0 
240 1 0.417923 79.5 12.9352 18.2874 0 
79 1 0.376387 79.5 13.2403 18.6638 0 
185 1 0.37559 79.5 13.4069 18.2704 0 
24 1 0.416559 79.5 13.7276 18.6036 0 
160 1 0.418475 79.5 14.2504 18.5005 0 
107 1 0.375813 79.5 14.743 18.3464 0 
176 1 0.376448 79.5 15.6926 18.6449 0 
84 1 0.417941 79.5 4.22997 18.8126 0 
298 1 0.374614 79.5 5.11133 18.8664 0 
260 1 0.417822 79.5 5.60214 18.8911 0 
148 1 0.418606 79.5 6.06761 18.9931 0 
199 1 0.417759 79.5 6.54907 19.0427 0 
245 1 0.376779 79.5 7.02291 19.0585 0 
122 1 0.41785 79.5 7.25492 18.6948 0 
166 1 0.418977 79.5 7.49949 19.0701 0 
163 1 0.376966 79.5 7.71064 18.7091 0 
75 1 0.376447 79.5 7.92993 19.0869 0 
184 1 0.417741 79.5 8.14107 18.7292 0 
129 1 0.417621 79.5 8.36532 19.1058 0 
59 1 0.419658 79.5 8.57965 18.7376 0 
108 1 0.37715 79.5 8.9947 18.769 0 
261 1 0.377169 79.5 9.38888 18.7641 0 
94 1 0.419162 79.5 9.58146 19.1101 0 
140 1 0.378892 79.5 9.79351 18.764 0 
121 1 0.418093 79.5 9.99959 19.1033 0 
68 1 0.37735 79.5 10.223 18.7746 0 
192 1 0.418338 79.5 10.6452 18.7681 0 
58 1 0.415805 79.5 11.0608 18.7974 0 
229 1 0.41843 79.5 11.4841 18.8147 0 
9 1 0.378113 79.5 11.9181 18.8154 0 
221 1 0.419252 79.5 12.3534 18.8389 0 
274 1 0.37582 79.5 12.8188 18.7585 0 
29 1 0.417393 79.5 13.079 19.0867 0 
17 1 0.37517 79.5 13.5381 19.014 0 
266 1 0.376034 79.5 14.0432 18.9463 0 
30 1 0.376677 79.5 14.5551 18.8689 0 
174 1 0.419338 79.5 15.0796 18.7443 0 
50 1 0.378881 79.5 4.05749 19.4111 0 
258 1 0.419432 79.5 4.72276 19.1866 0 
212 1 0.41762 79.5 5.31702 19.3197 0 
120 1 0.378184 79.5 5.8188 19.3778 0 
135 1 0.377153 79.5 6.30045 19.41 0 
252 1 0.378093 79.5 6.79146 19.4164 0 
301 1 0.41979 79.5 7.25895 19.4254 0 
63 1 0.377654 79.5 7.7222 19.4443 0 
218 1 0.418811 79.5 8.14254 19.4582 0 
118 1 0.41851 79.5 8.79036 19.1187 0 
38 1 0.377736 79.5 8.59848 19.467 0 
69 1 0.376926 79.5 9.1869 19.1268 0 
15 1 0.377305 79.5 9.00203 19.48 0 
12 1 0.37772 79.5 9.38651 19.4767 0 
293 1 0.417075 79.5 9.78292 19.4703 0 
296 1 0.418792 79.5 10.2045 19.4631 0 
276 1 0.417911 79.5 10.4313 19.1207 0 
284 1 0.376238 79.5 10.6258 19.469 0 
216 1 0.376432 79.5 10.8329 19.1358 0 
283 1 0.377483 79.5 11.0158 19.4696 0 
230 1 0.376846 79.5 11.2402 19.1502 0 
209 1 0.419672 79.5 11.4718 19.4711 0 
155 1 0.37768 79.5 11.7013 19.1476 0 
41 1 0.375472 79.5 11.8988 19.5003 0 
101 1 0.376457 79.5 12.1117 19.1687 0 
26 1 0.417817 79.5 12.3631 19.481 0 
302 1 0.377055 79.5 12.6177 19.1424 0 
49 1 0.419815 79.5 12.8522 19.4869 0 
127 1 0.417806 79.5 13.346 19.4377 0 
165 1 0.417616 79.5 13.8381 19.3674 0 
171 1 0.417726 79.5 14.3425 19.3295 0 
282 1 0.416306 79.5 14.8659 19.2685 0 
238 1 0.417818 79.5 15.4392 19.1734 0 
123 1 0.416947 79.5 4.53796 19.6898 0 
169 1 0.378453 79.5 5.06425 19.7286 0 
71 1 0.377916 79.5 5.57424 19.7622 0 
33 1 0.378072 79.5 6.05959 19.7799 0 
21 1 0.420824 79.5 6.54623 19.7861 0 
161 1 0.416955 79.5 7.02682 19.7941 0 
194 1 0.416887 79.5 7.50313 19.7959 0 
32 1 0.375477 79.5 7.94166 19.8158 0 
145 1 0.419666 79.5 8.38302 19.801 0 
87 1 0.377593 79.5 8.80781 19.8171 0 
27 1 0.375782 79.5 9.20472 19.8193 0 
8 1 0.378024 79.5 9.58853 19.8208 0 
253 1 0.415824 79.5 9.99907 19.8174 0 
47 1 0.418289 79.5 10.4265 19.8102 0 
89 1 0.376485 79.5 10.8227 19.8177 0 
133 1 0.418748 79.5 11.227 19.8053 0 
11 1 0.377588 79.5 11.6707 19.8193 0 
285 1 0.37676 79.5 12.1188 19.8175 0 
220 1 0.375738 79.5 12.5915 19.8172 0 
114 1 0.376368 79.5 13.1054 19.8138 0 
45 1 0.41618 79.5 13.6155 19.7915 0 
288 1 0.377512 79.5 14.1082 19.7651 0 
3 1 0.376593 79.5 14.6125 19.7418 0 
267 1 0.418107 79.5 15.1707 19.6989 0 
83 1 0.419111 79.5 15.8012 19.6169 0 
