# LAMMPS data file for rigid bodies

303 atoms

1 atom types

0.0 	 20.0 	 xlo xhi 
0.0 	 20.0 	 ylo yhi 
-1.0 	 1.0 	 zlo zhi 

Atoms

154 1 0.377463 79.5 8.82403 13.65 0 
248 1 0.417624 79.5 9.7139 13.4171 0 
142 1 0.376502 79.5 10.4136 13.601 0 
141 1 0.417537 79.5 8.29089 13.9836 0 
172 1 0.377906 79.5 8.89217 14.2164 0 
137 1 0.377547 79.5 9.34908 13.8906 0 
290 1 0.417552 79.5 9.91609 13.9898 0 
138 1 0.417163 79.5 10.4642 14.1723 0 
159 1 0.418141 79.5 11.0021 13.8392 0 
82 1 0.37548 79.5 11.6192 13.8261 0 
5 1 0.417956 79.5 12.7479 14.1547 0 
292 1 0.419322 79.5 6.58924 14.6657 0 
187 1 0.376835 79.5 7.30616 14.392 0 
116 1 0.418074 79.5 7.88936 14.435 0 
156 1 0.41736 79.5 8.46866 14.5631 0 
206 1 0.377502 79.5 9.42889 14.4003 0 
215 1 0.417318 79.5 9.92978 14.5277 0 
77 1 0.416408 79.5 10.9701 14.4203 0 
195 1 0.376076 79.5 11.5114 14.3621 0 
139 1 0.377813 79.5 12.0907 14.2269 0 
211 1 0.376915 79.5 7.0919 14.9214 0 
78 1 0.376793 79.5 7.59768 14.9312 0 
271 1 0.419038 79.5 8.11189 14.9824 0 
300 1 0.417817 79.5 8.63204 15.0939 0 
235 1 0.417949 79.5 9.01165 14.732 0 
55 1 0.377258 79.5 9.50207 14.8925 0 
225 1 0.418808 79.5 9.99146 15.0368 0 
246 1 0.419558 79.5 10.4298 14.7041 0 
109 1 0.416555 79.5 10.8822 14.9375 0 
104 1 0.417492 79.5 11.3758 14.8695 0 
28 1 0.376324 79.5 11.9159 14.7375 0 
205 1 0.417837 79.5 12.5115 14.6854 0 
277 1 0.378085 79.5 13.1371 14.7388 0 
249 1 0.37714 79.5 6.22014 15.1696 0 
76 1 0.376361 79.5 6.74757 15.3277 0 
34 1 0.376733 79.5 7.26873 15.4101 0 
56 1 0.417661 79.5 7.76557 15.428 0 
231 1 0.418206 79.5 8.27175 15.486 0 
37 1 0.376521 79.5 9.12708 15.2264 0 
250 1 0.419005 79.5 9.60672 15.3689 0 
96 1 0.375974 79.5 10.0708 15.5212 0 
270 1 0.377661 79.5 10.444 15.2125 0 
239 1 0.376202 79.5 10.8828 15.3972 0 
131 1 0.37743 79.5 11.3267 15.3995 0 
60 1 0.378985 79.5 11.74 15.2075 0 
57 1 0.417312 79.5 12.2654 15.1571 0 
95 1 0.378511 79.5 12.8059 15.1975 0 
19 1 0.377048 79.5 13.3672 15.2663 0 
236 1 0.417091 79.5 13.9698 15.3819 0 
279 1 0.419009 79.5 5.7994 15.5922 0 
62 1 0.419478 79.5 6.38432 15.7483 0 
251 1 0.418401 79.5 6.94188 15.8262 0 
103 1 0.376732 79.5 7.45212 15.8707 0 
150 1 0.42017 79.5 7.94554 15.9055 0 
128 1 0.417636 79.5 8.43149 15.9613 0 
227 1 0.419731 79.5 8.76549 15.5856 0 
74 1 0.418792 79.5 9.23669 15.6952 0 
91 1 0.375891 79.5 9.69631 15.8303 0 
234 1 0.376567 79.5 10.1134 15.9585 0 
149 1 0.420339 79.5 10.5331 15.6817 0 
14 1 0.378044 79.5 11.0671 15.8018 0 
20 1 0.418644 79.5 11.5937 15.8067 0 
81 1 0.377631 79.5 11.9964 15.5763 0 
86 1 0.418347 79.5 12.1691 15.9942 0 
295 1 0.376364 79.5 12.4944 15.6233 0 
6 1 0.41784 79.5 12.9885 15.7038 0 
16 1 0.418857 79.5 13.5098 15.8129 0 
98 1 0.376685 79.5 14.0208 15.9796 0 
61 1 0.416969 79.5 4.96376 16.1297 0 
180 1 0.4178 79.5 5.57687 16.1307 0 
223 1 0.377582 79.5 6.12255 16.2085 0 
85 1 0.378114 79.5 6.63882 16.2392 0 
147 1 0.378206 79.5 7.15529 16.2827 0 
36 1 0.41802 79.5 7.64532 16.3153 0 
44 1 0.376441 79.5 8.11849 16.355 0 
247 1 0.417974 79.5 8.58044 16.406 0 
273 1 0.375407 79.5 8.89992 16.0492 0 
226 1 0.418002 79.5 9.35708 16.1476 0 
93 1 0.375858 79.5 9.7936 16.2716 0 
204 1 0.417908 79.5 10.2141 16.4085 0 
207 1 0.375123 79.5 10.5197 16.1047 0 
275 1 0.375236 79.5 10.9101 16.1933 0 
144 1 0.417225 79.5 11.3456 16.2075 0 
72 1 0.418442 79.5 11.8117 16.2895 0 
35 1 0.375085 79.5 12.6381 16.1054 0 
112 1 0.37724 79.5 13.1029 16.2081 0 
105 1 0.378261 79.5 13.5843 16.337 0 
256 1 0.417029 79.5 14.5736 16.1102 0 
264 1 0.375728 79.5 5.24373 16.64 0 
257 1 0.417584 79.5 5.80031 16.6561 0 
7 1 0.376836 79.5 6.34074 16.6616 0 
54 1 0.417762 79.5 6.85566 16.6786 0 
13 1 0.376492 79.5 7.36472 16.705 0 
113 1 0.376209 79.5 7.83604 16.7396 0 
52 1 0.417492 79.5 8.28753 16.7836 0 
48 1 0.417895 79.5 8.74145 16.8492 0 
259 1 0.416952 79.5 9.0376 16.4904 0 
53 1 0.418687 79.5 9.48873 16.5946 0 
281 1 0.419313 79.5 9.91817 16.7282 0 
67 1 0.375259 79.5 10.343 16.845 0 
299 1 0.376562 79.5 10.6349 16.5279 0 
214 1 0.375802 79.5 11.0662 16.5951 0 
18 1 0.417229 79.5 11.5062 16.6536 0 
193 1 0.377638 79.5 11.9515 16.7486 0 
110 1 0.376982 79.5 12.282 16.4475 0 
289 1 0.377045 79.5 12.3933 16.8798 0 
303 1 0.377701 79.5 12.7324 16.5651 0 
203 1 0.418748 79.5 13.1957 16.6941 0 
43 1 0.416658 79.5 13.6772 16.8416 0 
126 1 0.377564 79.5 14.0794 16.505 0 
158 1 0.378408 79.5 14.556 16.7267 0 
66 1 0.417743 79.5 15.0889 16.5378 0 
100 1 0.41738 79.5 4.81017 17.0395 0 
254 1 0.418928 79.5 5.45844 17.1294 0 
88 1 0.377633 79.5 6.04766 17.0892 0 
136 1 0.377551 79.5 6.55809 17.0777 0 
124 1 0.377489 79.5 7.09482 17.0736 0 
111 1 0.377387 79.5 7.57624 17.0987 0 
64 1 0.37804 79.5 8.03111 17.1464 0 
175 1 0.375285 79.5 8.47266 17.203 0 
73 1 0.418056 79.5 9.19017 16.934 0 
196 1 0.417674 79.5 8.91049 17.2741 0 
197 1 0.418138 79.5 9.61814 17.0442 0 
134 1 0.377548 79.5 10.0593 17.1439 0 
46 1 0.377328 79.5 10.474 17.2461 0 
99 1 0.418162 79.5 10.7672 16.931 0 
119 1 0.418318 79.5 11.2056 17.0194 0 
153 1 0.418903 79.5 11.6377 17.0965 0 
269 1 0.377027 79.5 12.0624 17.1749 0 
278 1 0.377425 79.5 12.8369 17.0271 0 
2 1 0.418632 79.5 12.497 17.3263 0 
291 1 0.418671 79.5 13.2759 17.2 0 
167 1 0.376423 79.5 13.7332 17.3256 0 
244 1 0.377185 79.5 14.1497 17.0375 0 
179 1 0.419049 79.5 14.7043 17.2595 0 
182 1 0.376421 79.5 15.2563 17.1255 0 
70 1 0.418537 79.5 4.44269 17.5981 0 
90 1 0.418215 79.5 5.08541 17.5718 0 
1 1 0.416656 79.5 5.76395 17.5396 0 
232 1 0.41966 79.5 6.27756 17.5116 0 
25 1 0.418251 79.5 6.81564 17.4524 0 
294 1 0.420196 79.5 7.30662 17.475 0 
152 1 0.419353 79.5 7.77185 17.5094 0 
162 1 0.417925 79.5 8.22127 17.5558 0 
202 1 0.416907 79.5 8.65255 17.6227 0 
51 1 0.378133 79.5 9.08011 17.6748 0 
168 1 0.377281 79.5 9.3368 17.3635 0 
125 1 0.417497 79.5 9.76515 17.4508 0 
143 1 0.378123 79.5 9.49589 17.7487 0 
40 1 0.417655 79.5 10.1857 17.5526 0 
106 1 0.418321 79.5 10.5992 17.6608 0 
39 1 0.417739 79.5 10.9 17.3519 0 
233 1 0.376541 79.5 11.3125 17.4508 0 
242 1 0.419369 79.5 11.7239 17.5305 0 
10 1 0.377297 79.5 12.1412 17.5857 0 
23 1 0.377532 79.5 12.5598 17.7788 0 
237 1 0.377021 79.5 12.9088 17.5143 0 
115 1 0.377962 79.5 13.3053 17.6801 0 
130 1 0.41741 79.5 14.2256 17.5299 0 
173 1 0.377039 79.5 15.2501 17.6772 0 
265 1 0.4186 79.5 4.764 18.0928 0 
219 1 0.416465 79.5 5.45329 17.9508 0 
183 1 0.418934 79.5 6.00783 17.9931 0 
157 1 0.417922 79.5 6.58014 17.8671 0 
42 1 0.418538 79.5 7.0596 17.874 0 
177 1 0.417786 79.5 7.52788 17.8974 0 
170 1 0.419066 79.5 7.98157 17.9326 0 
222 1 0.376423 79.5 8.40447 17.971 0 
201 1 0.37868 79.5 8.82502 18.0077 0 
213 1 0.418946 79.5 9.23302 18.0595 0 
108 1 0.37715 79.5 9.63465 18.1263 0 
132 1 0.378247 79.5 9.90686 17.854 0 
228 1 0.377094 79.5 10.3131 17.9565 0 
198 1 0.418579 79.5 11.017 17.7806 0 
287 1 0.378509 79.5 10.7068 18.0658 0 
102 1 0.419434 79.5 11.1287 18.205 0 
151 1 0.377236 79.5 11.4161 17.8661 0 
65 1 0.375901 79.5 11.8105 17.9419 0 
181 1 0.377496 79.5 12.2045 17.9737 0 
31 1 0.376295 79.5 12.9098 17.9968 0 
240 1 0.417923 79.5 13.3323 18.1358 0 
297 1 0.418019 79.5 13.7607 17.7806 0 
286 1 0.417076 79.5 14.227 18.0369 0 
191 1 0.419678 79.5 14.7175 17.8215 0 
107 1 0.375813 79.5 15.7075 18.0883 0 
84 1 0.417941 79.5 4.30456 18.5056 0 
263 1 0.375892 79.5 5.18393 18.3838 0 
4 1 0.418796 79.5 5.6815 18.4164 0 
148 1 0.418606 79.5 6.11129 18.5976 0 
243 1 0.376024 79.5 6.38734 18.2538 0 
200 1 0.417021 79.5 6.60102 18.6538 0 
117 1 0.376414 79.5 6.84255 18.2693 0 
224 1 0.417151 79.5 7.29329 18.286 0 
188 1 0.417316 79.5 7.74796 18.3107 0 
189 1 0.374207 79.5 8.17213 18.3298 0 
210 1 0.417016 79.5 8.59173 18.3457 0 
75 1 0.376447 79.5 9.00542 18.3917 0 
261 1 0.377169 79.5 9.38749 18.4435 0 
68 1 0.37735 79.5 9.76669 18.482 0 
280 1 0.376116 79.5 10.0369 18.2272 0 
178 1 0.415965 79.5 10.4061 18.359 0 
22 1 0.376996 79.5 10.8052 18.4396 0 
229 1 0.41843 79.5 11.2751 18.6212 0 
268 1 0.418081 79.5 11.555 18.2767 0 
255 1 0.419607 79.5 12.0097 18.3378 0 
164 1 0.419166 79.5 12.4955 18.2658 0 
274 1 0.37582 79.5 12.9043 18.4347 0 
185 1 0.37559 79.5 13.2892 18.5748 0 
208 1 0.376279 79.5 13.7775 18.226 0 
241 1 0.375449 79.5 13.7012 18.6323 0 
79 1 0.376387 79.5 14.149 18.5227 0 
160 1 0.418475 79.5 14.6303 18.3721 0 
146 1 0.418691 79.5 15.145 18.2353 0 
176 1 0.376448 79.5 15.5244 18.6612 0 
298 1 0.374614 79.5 4.84442 18.7466 0 
260 1 0.417822 79.5 5.38466 18.8554 0 
135 1 0.377153 79.5 5.84997 18.9747 0 
166 1 0.418977 79.5 6.33559 19.0329 0 
217 1 0.420187 79.5 7.06236 18.6769 0 
245 1 0.376779 79.5 6.82064 19.0482 0 
63 1 0.377654 79.5 7.2886 19.0532 0 
186 1 0.417704 79.5 7.52081 18.6921 0 
97 1 0.377275 79.5 7.95149 18.6981 0 
163 1 0.376966 79.5 7.73764 19.0619 0 
129 1 0.417621 79.5 8.36542 18.7102 0 
184 1 0.417741 79.5 8.15516 19.085 0 
59 1 0.419658 79.5 8.79741 18.7305 0 
118 1 0.41851 79.5 8.58658 19.09 0 
140 1 0.378892 79.5 9.19305 18.7771 0 
69 1 0.376926 79.5 9.57019 18.7955 0 
92 1 0.417624 79.5 10.084 18.7135 0 
121 1 0.418093 79.5 9.83676 19.0818 0 
262 1 0.418034 79.5 10.4985 18.7595 0 
276 1 0.417911 79.5 10.2541 19.1027 0 
58 1 0.415805 79.5 10.9103 18.8175 0 
155 1 0.37768 79.5 11.4491 19.0062 0 
190 1 0.417687 79.5 11.7173 18.6752 0 
302 1 0.377055 79.5 11.8419 19.0595 0 
272 1 0.378957 79.5 12.1584 18.7097 0 
9 1 0.378113 79.5 12.2192 19.0899 0 
80 1 0.376209 79.5 12.5613 18.6789 0 
101 1 0.376457 79.5 12.6118 19.0605 0 
29 1 0.417393 79.5 13.0083 18.9147 0 
221 1 0.419252 79.5 13.4666 19.0116 0 
24 1 0.416559 79.5 13.979 18.9837 0 
174 1 0.419338 79.5 14.4824 18.8791 0 
30 1 0.376677 79.5 14.9839 18.7753 0 
238 1 0.417818 79.5 15.9398 19.1035 0 
258 1 0.419432 79.5 4.45578 19.1343 0 
199 1 0.417759 79.5 5.05359 19.256 0 
71 1 0.377916 79.5 5.57498 19.3476 0 
33 1 0.378072 79.5 6.06319 19.3934 0 
252 1 0.378093 79.5 6.57204 19.4091 0 
122 1 0.41785 79.5 7.04712 19.4119 0 
301 1 0.41979 79.5 7.51623 19.416 0 
32 1 0.375477 79.5 7.95449 19.4374 0 
218 1 0.418811 79.5 8.39899 19.4589 0 
15 1 0.377305 79.5 8.81208 19.4833 0 
94 1 0.419162 79.5 9.0013 19.1331 0 
27 1 0.375782 79.5 9.21282 19.4853 0 
12 1 0.37772 79.5 9.39764 19.1267 0 
296 1 0.418792 79.5 9.60888 19.4563 0 
47 1 0.418289 79.5 10.0262 19.4508 0 
216 1 0.376432 79.5 10.4399 19.4643 0 
230 1 0.376846 79.5 10.6507 19.1234 0 
192 1 0.418338 79.5 10.8518 19.4577 0 
283 1 0.377483 79.5 11.1057 19.154 0 
89 1 0.376485 79.5 11.2444 19.5009 0 
209 1 0.419672 79.5 11.6257 19.4056 0 
41 1 0.375472 79.5 12.0197 19.4566 0 
26 1 0.417817 79.5 12.4364 19.4451 0 
127 1 0.417806 79.5 12.8968 19.3774 0 
266 1 0.376034 79.5 13.3202 19.4071 0 
17 1 0.37517 79.5 13.7644 19.3881 0 
282 1 0.416306 79.5 14.2794 19.3536 0 
171 1 0.417726 79.5 14.7926 19.2925 0 
267 1 0.418107 79.5 15.3227 19.1984 0 
120 1 0.378184 79.5 4.17569 19.6293 0 
212 1 0.41762 79.5 4.75455 19.6893 0 
169 1 0.378453 79.5 5.30418 19.7376 0 
50 1 0.378881 79.5 5.80802 19.7683 0 
123 1 0.416947 79.5 6.30867 19.7774 0 
21 1 0.420824 79.5 6.80039 19.7907 0 
194 1 0.416887 79.5 7.27694 19.7946 0 
161 1 0.416955 79.5 7.73055 19.7962 0 
145 1 0.419666 79.5 8.16665 19.8015 0 
38 1 0.377736 79.5 8.61196 19.8178 0 
8 1 0.378024 79.5 9.02234 19.8185 0 
87 1 0.377593 79.5 9.41891 19.819 0 
253 1 0.415824 79.5 9.81668 19.8107 0 
133 1 0.418748 79.5 10.2308 19.8082 0 
293 1 0.417075 79.5 10.6421 19.809 0 
285 1 0.37676 79.5 11.0389 19.8209 0 
284 1 0.376238 79.5 11.4413 19.819 0 
11 1 0.377588 79.5 11.8194 19.8124 0 
288 1 0.377512 79.5 12.2221 19.8145 0 
49 1 0.419815 79.5 12.6679 19.794 0 
165 1 0.417616 79.5 13.1139 19.7917 0 
114 1 0.376368 79.5 13.5645 19.7869 0 
45 1 0.41618 79.5 14.0376 19.7673 0 
3 1 0.376593 79.5 14.5497 19.7538 0 
220 1 0.375738 79.5 15.0679 19.7188 0 
83 1 0.419111 79.5 15.646 19.66 0 
