# LAMMPS data file for rigid bodies

303 atoms

1 atom types

0.0 	 20.0 	 xlo xhi 
0.0 	 20.0 	 ylo yhi 
-1.0 	 1.0 	 zlo zhi 

Atoms

141 1 0.417537 79.5 8.70974 13.6294 0 
248 1 0.417624 79.5 9.34777 13.6869 0 
290 1 0.417552 79.5 9.93782 13.7391 0 
116 1 0.418074 79.5 7.43776 14.1229 0 
156 1 0.41736 79.5 8.07025 14.0572 0 
154 1 0.377463 79.5 8.64122 14.1846 0 
172 1 0.377906 79.5 9.16497 14.2221 0 
142 1 0.376502 79.5 10.5001 13.7964 0 
5 1 0.417956 79.5 11.0835 13.8258 0 
82 1 0.37548 79.5 11.649 14.0066 0 
139 1 0.377813 79.5 12.1882 14.1902 0 
187 1 0.376835 79.5 7.14973 14.6467 0 
78 1 0.376793 79.5 7.74739 14.6252 0 
300 1 0.417817 79.5 8.31351 14.6075 0 
137 1 0.377547 79.5 9.66794 14.26 0 
206 1 0.377502 79.5 10.1849 14.2856 0 
138 1 0.417163 79.5 10.7179 14.3289 0 
159 1 0.418141 79.5 11.2591 14.4278 0 
28 1 0.376324 79.5 11.7799 14.5814 0 
277 1 0.378085 79.5 12.7527 14.3672 0 
211 1 0.376915 79.5 6.53183 14.8778 0 
76 1 0.376361 79.5 7.50138 15.1074 0 
271 1 0.419038 79.5 8.0544 15.0671 0 
227 1 0.419731 79.5 8.87577 14.6719 0 
74 1 0.418792 79.5 8.59401 15.0996 0 
37 1 0.376521 79.5 9.37998 14.7152 0 
235 1 0.417949 79.5 9.88451 14.7455 0 
215 1 0.417318 79.5 10.3899 14.7806 0 
246 1 0.419558 79.5 10.902 14.8587 0 
77 1 0.416408 79.5 11.4053 14.9697 0 
104 1 0.417492 79.5 11.9158 15.0991 0 
195 1 0.376076 79.5 12.3008 14.7455 0 
95 1 0.378511 79.5 12.8114 14.9244 0 
19 1 0.377048 79.5 13.3116 14.7141 0 
34 1 0.376733 79.5 6.0833 15.2939 0 
279 1 0.419009 79.5 6.62396 15.5285 0 
249 1 0.37714 79.5 7.00109 15.1589 0 
56 1 0.417661 79.5 7.7953 15.5066 0 
150 1 0.42017 79.5 8.33044 15.5224 0 
91 1 0.375891 79.5 8.82929 15.5536 0 
14 1 0.378044 79.5 9.09691 15.1466 0 
250 1 0.419005 79.5 9.59045 15.1715 0 
55 1 0.377258 79.5 10.0822 15.2234 0 
225 1 0.418808 79.5 10.5617 15.2607 0 
131 1 0.37743 79.5 11.0579 15.3503 0 
81 1 0.377631 79.5 11.5375 15.4542 0 
60 1 0.378985 79.5 12.4472 15.2638 0 
6 1 0.41784 79.5 13.0684 15.3853 0 
16 1 0.418857 79.5 13.6643 15.1866 0 
292 1 0.419322 79.5 5.55422 15.72 0 
61 1 0.416969 79.5 6.13609 15.8745 0 
251 1 0.418401 79.5 7.20157 15.6351 0 
103 1 0.376732 79.5 7.60166 15.9263 0 
62 1 0.419478 79.5 8.08816 15.9464 0 
36 1 0.41802 79.5 8.57935 15.9664 0 
231 1 0.418206 79.5 9.30924 15.5895 0 
128 1 0.417636 79.5 9.05226 15.9939 0 
149 1 0.420339 79.5 9.79361 15.6287 0 
96 1 0.375974 79.5 10.2577 15.6671 0 
109 1 0.416555 79.5 10.7258 15.7132 0 
239 1 0.376202 79.5 11.2042 15.7952 0 
20 1 0.418644 79.5 11.6861 15.907 0 
86 1 0.418347 79.5 12.0598 15.583 0 
193 1 0.377638 79.5 12.5792 15.7248 0 
57 1 0.417312 79.5 13.0767 15.9087 0 
205 1 0.417837 79.5 13.6002 15.7614 0 
236 1 0.417091 79.5 14.195 15.5879 0 
264 1 0.375728 79.5 5.1597 16.2586 0 
180 1 0.4178 79.5 5.7319 16.3225 0 
100 1 0.41738 79.5 6.26937 16.415 0 
147 1 0.378206 79.5 6.65078 16.0395 0 
223 1 0.377582 79.5 7.10488 16.1365 0 
111 1 0.377387 79.5 7.50738 16.3374 0 
85 1 0.378114 79.5 7.94024 16.3702 0 
273 1 0.375407 79.5 8.37025 16.3769 0 
113 1 0.376209 79.5 8.80535 16.3947 0 
226 1 0.418002 79.5 9.25117 16.4216 0 
93 1 0.375858 79.5 9.51609 16.0245 0 
53 1 0.418687 79.5 9.70045 16.4395 0 
234 1 0.376567 79.5 9.9692 16.0525 0 
270 1 0.377661 79.5 10.4132 16.0844 0 
144 1 0.417225 79.5 10.883 16.1496 0 
72 1 0.418442 79.5 11.3447 16.2453 0 
289 1 0.377045 79.5 11.8116 16.3541 0 
303 1 0.377701 79.5 12.1736 16.0436 0 
295 1 0.376364 79.5 12.6389 16.1897 0 
110 1 0.376982 79.5 13.0661 16.3979 0 
112 1 0.37724 79.5 13.5144 16.2966 0 
256 1 0.417029 79.5 14.0262 16.1752 0 
66 1 0.417743 79.5 14.6508 16.1154 0 
257 1 0.417584 79.5 4.75827 16.7648 0 
7 1 0.376836 79.5 5.39398 16.7882 0 
88 1 0.377633 79.5 5.93615 16.8385 0 
136 1 0.377551 79.5 6.76597 16.5208 0 
54 1 0.417762 79.5 7.20332 16.6671 0 
52 1 0.417492 79.5 7.68111 16.7588 0 
13 1 0.376492 79.5 8.12458 16.7748 0 
196 1 0.417674 79.5 8.56058 16.7895 0 
247 1 0.417974 79.5 8.99637 16.8173 0 
259 1 0.416952 79.5 9.43547 16.8536 0 
275 1 0.375236 79.5 10.1356 16.45 0 
73 1 0.418056 79.5 9.86242 16.8623 0 
18 1 0.417229 79.5 10.5816 16.4982 0 
204 1 0.417908 79.5 10.292 16.85 0 
214 1 0.375802 79.5 11.0264 16.5832 0 
278 1 0.377425 79.5 11.475 16.6691 0 
2 1 0.418632 79.5 11.9214 16.7936 0 
291 1 0.418671 79.5 12.2802 16.4974 0 
35 1 0.375085 79.5 12.7255 16.6689 0 
203 1 0.418748 79.5 13.2933 16.8183 0 
98 1 0.376685 79.5 13.7973 16.7051 0 
105 1 0.378261 79.5 14.3393 16.6181 0 
158 1 0.378408 79.5 15.0301 16.6717 0 
254 1 0.418928 79.5 5.04043 17.2759 0 
1 1 0.416656 79.5 5.60906 17.2729 0 
232 1 0.41966 79.5 6.14428 17.3099 0 
25 1 0.418251 79.5 6.45718 16.9049 0 
124 1 0.377489 79.5 6.93585 17.0224 0 
175 1 0.375285 79.5 7.41098 17.1107 0 
64 1 0.37804 79.5 7.86503 17.1605 0 
281 1 0.419313 79.5 8.30992 17.1783 0 
44 1 0.376441 79.5 8.74754 17.2078 0 
48 1 0.417895 79.5 9.17097 17.2363 0 
207 1 0.375123 79.5 9.58735 17.2675 0 
39 1 0.417739 79.5 9.99649 17.2751 0 
119 1 0.418318 79.5 10.4217 17.2506 0 
299 1 0.376562 79.5 10.7278 16.9109 0 
125 1 0.417497 79.5 10.8574 17.3183 0 
153 1 0.418903 79.5 11.1651 16.9943 0 
10 1 0.377297 79.5 11.5902 17.0858 0 
269 1 0.377027 79.5 12.3915 16.955 0 
237 1 0.377021 79.5 12.0573 17.2077 0 
126 1 0.377564 79.5 12.8708 17.0768 0 
167 1 0.376423 79.5 13.2256 17.3118 0 
244 1 0.377185 79.5 13.6457 17.1916 0 
43 1 0.416658 79.5 14.1247 17.1142 0 
182 1 0.376421 79.5 14.6442 17.0491 0 
130 1 0.41741 79.5 15.5024 17.3002 0 
70 1 0.418537 79.5 4.57386 17.641 0 
90 1 0.418215 79.5 5.31049 17.7538 0 
219 1 0.416465 79.5 5.86214 17.7318 0 
157 1 0.417922 79.5 6.38229 17.7763 0 
294 1 0.420196 79.5 6.64943 17.3817 0 
152 1 0.419353 79.5 7.13991 17.4536 0 
189 1 0.374207 79.5 7.61036 17.5129 0 
162 1 0.417925 79.5 8.04824 17.5604 0 
197 1 0.418138 79.5 8.50175 17.5835 0 
202 1 0.416907 79.5 8.92622 17.6196 0 
99 1 0.418162 79.5 9.35123 17.6455 0 
143 1 0.378123 79.5 9.7505 17.6573 0 
134 1 0.377548 79.5 10.1409 17.6594 0 
40 1 0.417655 79.5 10.5472 17.6481 0 
151 1 0.377236 79.5 10.9865 17.7077 0 
46 1 0.377328 79.5 11.2863 17.4163 0 
242 1 0.419369 79.5 11.7223 17.4806 0 
23 1 0.377532 79.5 12.1751 17.5986 0 
240 1 0.417923 79.5 12.5571 17.3787 0 
115 1 0.377962 79.5 12.9754 17.6604 0 
31 1 0.376295 79.5 13.4294 17.7108 0 
297 1 0.418019 79.5 13.8953 17.6165 0 
286 1 0.417076 79.5 14.4122 17.5609 0 
179 1 0.419049 79.5 14.9572 17.479 0 
265 1 0.4186 79.5 4.92574 18.1272 0 
263 1 0.375892 79.5 5.61906 18.155 0 
183 1 0.418934 79.5 6.127 18.1706 0 
117 1 0.376414 79.5 6.62709 18.2087 0 
42 1 0.418538 79.5 6.87106 17.8315 0 
177 1 0.417786 79.5 7.36117 17.87 0 
222 1 0.376423 79.5 7.80929 17.9215 0 
170 1 0.419066 79.5 8.26116 17.955 0 
67 1 0.375259 79.5 8.68901 17.9842 0 
168 1 0.377281 79.5 9.10344 18.0086 0 
228 1 0.377094 79.5 9.5 18.0332 0 
51 1 0.378133 79.5 9.88729 18.0269 0 
280 1 0.376116 79.5 10.2793 18.0168 0 
198 1 0.418579 79.5 10.7019 18.0328 0 
65 1 0.375901 79.5 11.4295 17.8025 0 
102 1 0.419434 79.5 11.1447 18.0789 0 
233 1 0.376541 79.5 11.6063 18.2166 0 
164 1 0.419166 79.5 11.8455 17.8942 0 
80 1 0.376209 79.5 12.2438 18.0053 0 
181 1 0.377496 79.5 12.5875 17.8164 0 
274 1 0.37582 79.5 12.89 18.1115 0 
272 1 0.378957 79.5 13.2973 18.129 0 
79 1 0.376387 79.5 13.7385 18.0848 0 
208 1 0.376279 79.5 14.2093 18.0276 0 
185 1 0.37559 79.5 14.7322 17.9774 0 
173 1 0.377039 79.5 15.3015 17.9272 0 
4 1 0.418796 79.5 4.31435 18.2513 0 
298 1 0.374614 79.5 4.74938 18.6512 0 
258 1 0.419432 79.5 5.30781 18.5178 0 
243 1 0.376024 79.5 5.87327 18.5572 0 
260 1 0.417822 79.5 6.37894 18.5834 0 
200 1 0.417021 79.5 6.86544 18.6241 0 
217 1 0.420187 79.5 7.10161 18.2471 0 
245 1 0.376779 79.5 7.32305 18.6561 0 
188 1 0.417316 79.5 7.56182 18.2861 0 
210 1 0.417016 79.5 8.01421 18.3134 0 
97 1 0.377275 79.5 8.44305 18.339 0 
224 1 0.417151 79.5 8.86462 18.3587 0 
132 1 0.378247 79.5 9.26687 18.3831 0 
108 1 0.37715 79.5 9.65001 18.3944 0 
287 1 0.378509 79.5 10.0327 18.3811 0 
106 1 0.418321 79.5 10.4405 18.3788 0 
268 1 0.418081 79.5 10.8708 18.4128 0 
229 1 0.41843 79.5 11.302 18.4651 0 
190 1 0.417687 79.5 12.0072 18.337 0 
255 1 0.419607 79.5 12.5156 18.3152 0 
29 1 0.417393 79.5 13.056 18.5436 0 
221 1 0.419252 79.5 13.5266 18.5375 0 
191 1 0.419678 79.5 14.0075 18.4858 0 
24 1 0.416559 79.5 14.5206 18.434 0 
241 1 0.375449 79.5 15.0548 18.4044 0 
107 1 0.375813 79.5 15.6862 18.354 0 
84 1 0.417941 79.5 4.23157 18.9172 0 
120 1 0.378184 79.5 5.1213 18.9852 0 
212 1 0.41762 79.5 5.62564 18.9456 0 
199 1 0.417759 79.5 6.12385 18.9753 0 
148 1 0.418606 79.5 6.61784 19.0016 0 
163 1 0.376966 79.5 7.09179 19.0173 0 
59 1 0.419658 79.5 7.53795 19.0453 0 
186 1 0.417704 79.5 7.77436 18.6821 0 
75 1 0.376447 79.5 7.96833 19.0668 0 
201 1 0.37868 79.5 8.2017 18.6983 0 
94 1 0.419162 79.5 8.37689 19.0797 0 
213 1 0.418946 79.5 8.62063 18.7133 0 
184 1 0.417741 79.5 8.79472 19.0979 0 
140 1 0.378892 79.5 9.037 18.7407 0 
69 1 0.376926 79.5 9.18981 19.1034 0 
261 1 0.377169 79.5 9.41918 18.7429 0 
121 1 0.418093 79.5 9.58275 19.1046 0 
68 1 0.37735 79.5 9.80436 18.7431 0 
92 1 0.417624 79.5 9.99323 19.0927 0 
178 1 0.415965 79.5 10.2081 18.7369 0 
293 1 0.417075 79.5 10.4085 19.1046 0 
276 1 0.417911 79.5 10.6246 18.7527 0 
262 1 0.418034 79.5 11.0381 18.7941 0 
22 1 0.376996 79.5 11.4405 18.8325 0 
155 1 0.37768 79.5 11.7784 18.6682 0 
9 1 0.378113 79.5 12.2398 18.6739 0 
127 1 0.417806 79.5 12.0342 19.0264 0 
302 1 0.377055 79.5 12.4626 19.0523 0 
101 1 0.376457 79.5 12.6568 18.6977 0 
165 1 0.417616 79.5 12.925 19.0219 0 
17 1 0.37517 79.5 13.3441 18.959 0 
266 1 0.376034 79.5 13.7955 18.9348 0 
174 1 0.419338 79.5 14.288 18.8955 0 
176 1 0.376448 79.5 14.8087 18.8579 0 
160 1 0.418475 79.5 15.3958 18.8439 0 
169 1 0.378453 79.5 4.05419 19.5149 0 
71 1 0.377916 79.5 4.7197 19.2408 0 
33 1 0.378072 79.5 5.39715 19.359 0 
135 1 0.377153 79.5 5.8917 19.3755 0 
166 1 0.418977 79.5 6.36695 19.3939 0 
301 1 0.41979 79.5 6.85499 19.3954 0 
122 1 0.41785 79.5 7.315 19.4132 0 
63 1 0.377654 79.5 7.76191 19.4284 0 
129 1 0.417621 79.5 8.17468 19.4554 0 
15 1 0.377305 79.5 8.58793 19.4538 0 
87 1 0.377593 79.5 8.99359 19.4537 0 
118 1 0.41851 79.5 9.38946 19.4728 0 
12 1 0.37772 79.5 9.78576 19.4613 0 
296 1 0.418792 79.5 10.1874 19.4564 0 
47 1 0.418289 79.5 10.6099 19.466 0 
216 1 0.376432 79.5 10.8133 19.1271 0 
284 1 0.376238 79.5 11.003 19.5019 0 
192 1 0.418338 79.5 11.2156 19.1694 0 
230 1 0.376846 79.5 11.4173 19.5094 0 
58 1 0.415805 79.5 11.6446 19.1659 0 
41 1 0.375472 79.5 11.8461 19.5012 0 
209 1 0.419672 79.5 12.2428 19.4167 0 
49 1 0.419815 79.5 12.7007 19.416 0 
288 1 0.377512 79.5 13.1389 19.4118 0 
45 1 0.41618 79.5 13.5743 19.3573 0 
282 1 0.416306 79.5 14.0592 19.3407 0 
267 1 0.418107 79.5 14.5661 19.3157 0 
30 1 0.376677 79.5 15.0928 19.274 0 
146 1 0.418691 79.5 15.8519 19.2409 0 
50 1 0.378881 79.5 4.55519 19.7082 0 
123 1 0.416947 79.5 5.07706 19.71 0 
21 1 0.420824 79.5 5.63494 19.7651 0 
252 1 0.378093 79.5 6.13203 19.7833 0 
161 1 0.416955 79.5 6.61393 19.7899 0 
194 1 0.416887 79.5 7.08805 19.7937 0 
218 1 0.418811 79.5 7.55144 19.7939 0 
32 1 0.375477 79.5 7.97707 19.8149 0 
38 1 0.377736 79.5 8.38827 19.8154 0 
145 1 0.419666 79.5 8.79642 19.7997 0 
8 1 0.378024 79.5 9.19476 19.819 0 
27 1 0.375782 79.5 9.5785 19.8215 0 
253 1 0.415824 79.5 9.97261 19.8093 0 
133 1 0.418748 79.5 10.3908 19.8146 0 
285 1 0.37676 79.5 10.7946 19.8215 0 
89 1 0.376485 79.5 11.1999 19.822 0 
283 1 0.377483 79.5 11.625 19.8215 0 
11 1 0.377588 79.5 12.0503 19.8172 0 
26 1 0.417817 79.5 12.4751 19.7948 0 
220 1 0.375738 79.5 12.9192 19.8031 0 
114 1 0.376368 79.5 13.355 19.7886 0 
171 1 0.417726 79.5 13.8223 19.7685 0 
3 1 0.376593 79.5 14.3165 19.7567 0 
83 1 0.419111 79.5 14.8505 19.7331 0 
238 1 0.417818 79.5 15.4422 19.6721 0 
