# LAMMPS data file for rigid bodies

303 atoms

1 atom types

0.0 	 20.0 	 xlo xhi 
0.0 	 20.0 	 ylo yhi 
-1.0 	 1.0 	 zlo zhi 

Atoms

141 1 0.417537 79.5 8.35817 13.7552 0 
248 1 0.417624 79.5 9.30505 13.6617 0 
142 1 0.376502 79.5 10.5137 13.6931 0 
5 1 0.417956 79.5 11.103 13.5003 0 
156 1 0.41736 79.5 7.70899 14.0379 0 
154 1 0.377463 79.5 8.83794 14.0672 0 
206 1 0.377502 79.5 9.53464 14.1876 0 
290 1 0.417552 79.5 9.96516 13.845 0 
77 1 0.416408 79.5 11.0366 14.091 0 
82 1 0.37548 79.5 11.6052 13.9143 0 
139 1 0.377813 79.5 12.4442 14.0913 0 
116 1 0.418074 79.5 7.11795 14.4149 0 
271 1 0.419038 79.5 7.67869 14.6423 0 
172 1 0.377906 79.5 8.22327 14.3388 0 
235 1 0.417949 79.5 8.66124 14.6398 0 
137 1 0.377547 79.5 9.13416 14.4754 0 
225 1 0.418808 79.5 10.013 14.4602 0 
138 1 0.417163 79.5 10.5 14.258 0 
246 1 0.419558 79.5 10.9256 14.6375 0 
131 1 0.37743 79.5 11.4329 14.4892 0 
28 1 0.376324 79.5 11.9438 14.3425 0 
95 1 0.378511 79.5 12.9249 14.5067 0 
34 1 0.376733 79.5 6.63479 14.8151 0 
78 1 0.376793 79.5 7.2052 15.0085 0 
300 1 0.417817 79.5 8.17582 14.8901 0 
37 1 0.376521 79.5 9.10881 14.9735 0 
215 1 0.417318 79.5 9.55807 14.7396 0 
250 1 0.419005 79.5 9.9882 15.0061 0 
55 1 0.377258 79.5 10.4493 14.8015 0 
109 1 0.416555 79.5 11.331 15.0115 0 
159 1 0.418141 79.5 11.8345 14.8673 0 
195 1 0.376076 79.5 12.377 14.6749 0 
60 1 0.378985 79.5 12.7791 15.0582 0 
277 1 0.378085 79.5 13.3628 14.9034 0 
187 1 0.376835 79.5 6.12965 15.1875 0 
76 1 0.376361 79.5 6.76927 15.343 0 
211 1 0.376915 79.5 7.29693 15.5273 0 
56 1 0.417661 79.5 7.71061 15.2001 0 
231 1 0.418206 79.5 8.19375 15.4139 0 
227 1 0.419731 79.5 8.64893 15.1685 0 
74 1 0.418792 79.5 9.09047 15.4579 0 
91 1 0.375891 79.5 9.53053 15.239 0 
144 1 0.417225 79.5 9.94114 15.5085 0 
149 1 0.420339 79.5 10.402 15.2984 0 
96 1 0.375974 79.5 10.8586 15.1377 0 
270 1 0.377661 79.5 11.2503 15.498 0 
81 1 0.377631 79.5 11.71 15.3712 0 
104 1 0.417492 79.5 12.2527 15.1836 0 
57 1 0.417312 79.5 13.1621 15.44 0 
19 1 0.377048 79.5 13.7665 15.3266 0 
279 1 0.419009 79.5 5.5747 15.7615 0 
292 1 0.419322 79.5 6.32042 15.7092 0 
251 1 0.418401 79.5 6.88427 15.8464 0 
103 1 0.376732 79.5 7.76826 15.7095 0 
36 1 0.41802 79.5 8.2225 15.9047 0 
150 1 0.42017 79.5 8.65582 15.6772 0 
14 1 0.378044 79.5 9.07742 15.9441 0 
226 1 0.418002 79.5 9.5 15.7199 0 
93 1 0.375858 79.5 9.89355 15.9753 0 
234 1 0.376567 79.5 10.3348 15.7676 0 
20 1 0.418644 79.5 10.7959 15.6088 0 
275 1 0.375236 79.5 11.1659 15.9563 0 
239 1 0.376202 79.5 11.5888 15.8407 0 
86 1 0.418347 79.5 12.1029 15.6568 0 
295 1 0.376364 79.5 12.6238 15.559 0 
110 1 0.376982 79.5 12.9635 15.9292 0 
6 1 0.41784 79.5 13.526 15.8498 0 
16 1 0.418857 79.5 14.158 15.7784 0 
100 1 0.41738 79.5 5.02966 16.441 0 
264 1 0.375728 79.5 5.97939 16.1415 0 
61 1 0.416969 79.5 6.50662 16.2361 0 
62 1 0.419478 79.5 7.01286 16.3463 0 
249 1 0.37714 79.5 7.38552 16.013 0 
147 1 0.378206 79.5 7.82885 16.1816 0 
52 1 0.417492 79.5 8.2675 16.3757 0 
128 1 0.417636 79.5 8.67172 16.1622 0 
247 1 0.417974 79.5 9.05047 16.426 0 
53 1 0.418687 79.5 9.46864 16.1904 0 
48 1 0.417895 79.5 9.85963 16.435 0 
73 1 0.418056 79.5 10.2793 16.2082 0 
18 1 0.417229 79.5 10.7179 16.0646 0 
207 1 0.375123 79.5 11.0587 16.3801 0 
289 1 0.377045 79.5 11.4756 16.3264 0 
72 1 0.418442 79.5 11.9556 16.1062 0 
303 1 0.377701 79.5 12.302 16.4384 0 
193 1 0.377638 79.5 12.4594 16.0099 0 
35 1 0.375085 79.5 12.7764 16.3691 0 
112 1 0.37724 79.5 13.2766 16.3121 0 
98 1 0.376685 79.5 13.828 16.2761 0 
205 1 0.417837 79.5 14.4147 16.3208 0 
236 1 0.417091 79.5 15.0038 16.3619 0 
257 1 0.417584 79.5 5.60587 16.5407 0 
180 1 0.4178 79.5 6.16404 16.6413 0 
223 1 0.377582 79.5 6.68312 16.7245 0 
111 1 0.377387 79.5 7.47958 16.4834 0 
85 1 0.378114 79.5 7.15716 16.8041 0 
273 1 0.375407 79.5 7.89868 16.6366 0 
13 1 0.376492 79.5 8.2784 16.8211 0 
113 1 0.376209 79.5 8.65212 16.6518 0 
44 1 0.376441 79.5 8.98139 16.8795 0 
259 1 0.416952 79.5 9.43455 16.6569 0 
281 1 0.419313 79.5 9.82628 16.8844 0 
67 1 0.375259 79.5 10.2585 16.6316 0 
134 1 0.377548 79.5 10.6583 16.5056 0 
153 1 0.418903 79.5 11.1285 16.7941 0 
269 1 0.377027 79.5 11.5681 16.8066 0 
214 1 0.375802 79.5 11.8551 16.5279 0 
278 1 0.377425 79.5 12.1032 16.8556 0 
2 1 0.418632 79.5 12.5748 16.8082 0 
291 1 0.418671 79.5 13.0615 16.7667 0 
203 1 0.418748 79.5 13.5673 16.728 0 
105 1 0.378261 79.5 14.082 16.7312 0 
70 1 0.418537 79.5 4.68604 17.0727 0 
265 1 0.4186 79.5 5.28408 17.0437 0 
254 1 0.418928 79.5 5.84335 17.0718 0 
54 1 0.417762 79.5 6.37446 17.113 0 
7 1 0.376836 79.5 6.87259 17.1614 0 
124 1 0.377489 79.5 7.32067 17.2212 0 
64 1 0.37804 79.5 7.60892 16.9373 0 
152 1 0.419353 79.5 7.99418 17.1411 0 
162 1 0.417925 79.5 8.51704 17.159 0 
170 1 0.419066 79.5 8.935 17.3013 0 
196 1 0.417674 79.5 9.35586 17.0848 0 
168 1 0.377281 79.5 9.71827 17.2809 0 
204 1 0.417908 79.5 10.2403 17.0272 0 
39 1 0.417739 79.5 10.5677 17.3035 0 
299 1 0.376562 79.5 10.6817 16.8988 0 
119 1 0.418318 79.5 11.0018 17.2222 0 
242 1 0.419369 79.5 11.4391 17.207 0 
237 1 0.377021 79.5 11.8764 17.1919 0 
23 1 0.377532 79.5 12.3547 17.2075 0 
115 1 0.377962 79.5 12.8286 17.1982 0 
167 1 0.376423 79.5 13.3123 17.1731 0 
126 1 0.377564 79.5 13.7915 17.172 0 
158 1 0.378408 79.5 14.2875 17.165 0 
256 1 0.417029 79.5 14.7368 16.9239 0 
66 1 0.417743 79.5 15.3467 16.979 0 
90 1 0.418215 79.5 4.40701 17.6959 0 
1 1 0.416656 79.5 5.02417 17.5973 0 
183 1 0.418934 79.5 5.57838 17.5372 0 
136 1 0.377551 79.5 6.1055 17.5294 0 
232 1 0.41966 79.5 6.62042 17.5451 0 
88 1 0.377633 79.5 7.12322 17.5708 0 
25 1 0.418251 79.5 7.66462 17.4891 0 
224 1 0.417151 79.5 8.1534 17.5417 0 
177 1 0.417786 79.5 8.58246 17.6052 0 
143 1 0.378123 79.5 8.98528 17.7362 0 
197 1 0.418138 79.5 9.32085 17.5243 0 
99 1 0.418162 79.5 9.70267 17.6872 0 
202 1 0.416907 79.5 10.1025 17.4205 0 
125 1 0.417497 79.5 10.4526 17.7043 0 
40 1 0.417655 79.5 10.8754 17.642 0 
46 1 0.377328 79.5 11.2815 17.6043 0 
65 1 0.375901 79.5 11.7046 17.573 0 
181 1 0.377496 79.5 12.1381 17.5597 0 
10 1 0.377297 79.5 12.592 17.5723 0 
297 1 0.418019 79.5 13.0876 17.5827 0 
240 1 0.417923 79.5 13.5676 17.6051 0 
43 1 0.416658 79.5 14.0736 17.6065 0 
182 1 0.376421 79.5 14.6031 17.5528 0 
244 1 0.377185 79.5 15.1264 17.5068 0 
4 1 0.418796 79.5 4.80063 18.1493 0 
263 1 0.375892 79.5 5.36478 18.0298 0 
217 1 0.420187 79.5 5.86651 17.978 0 
219 1 0.416465 79.5 6.36312 17.9473 0 
294 1 0.420196 79.5 6.89776 17.9365 0 
175 1 0.375285 79.5 7.40615 17.8843 0 
210 1 0.417016 79.5 7.8601 17.8998 0 
189 1 0.374207 79.5 8.28295 17.9592 0 
51 1 0.378133 79.5 8.67632 18.0204 0 
228 1 0.377094 79.5 9.04978 18.1076 0 
198 1 0.418579 79.5 9.43171 18.0061 0 
151 1 0.377236 79.5 10.0739 17.8196 0 
287 1 0.378509 79.5 9.82696 18.1047 0 
280 1 0.376116 79.5 10.2968 18.1187 0 
106 1 0.418321 79.5 10.6918 18.0462 0 
233 1 0.376541 79.5 11.0989 18.0017 0 
164 1 0.419166 79.5 11.5133 17.959 0 
268 1 0.418081 79.5 11.9534 17.9433 0 
80 1 0.376209 79.5 12.3814 17.9443 0 
255 1 0.419607 79.5 12.8362 17.9554 0 
31 1 0.376295 79.5 13.3374 18.0175 0 
208 1 0.376279 79.5 13.8242 18.0178 0 
185 1 0.37559 79.5 14.3482 18.011 0 
130 1 0.41741 79.5 14.893 18.0101 0 
179 1 0.419049 79.5 15.5234 17.982 0 
84 1 0.417941 79.5 4.19452 18.3776 0 
258 1 0.419432 79.5 5.20744 18.5154 0 
298 1 0.374614 79.5 5.702 18.446 0 
200 1 0.417021 79.5 6.16216 18.4083 0 
157 1 0.417922 79.5 6.6554 18.3162 0 
42 1 0.418538 79.5 6.95205 18.6582 0 
117 1 0.376414 79.5 7.17655 18.2713 0 
186 1 0.417704 79.5 7.61831 18.2777 0 
201 1 0.37868 79.5 8.04558 18.3142 0 
213 1 0.418946 79.5 8.45723 18.3641 0 
222 1 0.376423 79.5 8.86112 18.4334 0 
261 1 0.377169 79.5 9.26659 18.4198 0 
68 1 0.37735 79.5 9.64229 18.4337 0 
178 1 0.415965 79.5 10.0548 18.4301 0 
22 1 0.376996 79.5 10.5 18.4335 0 
102 1 0.419434 79.5 10.9088 18.402 0 
229 1 0.41843 79.5 11.3245 18.3565 0 
190 1 0.417687 79.5 11.7543 18.3384 0 
272 1 0.378957 79.5 12.1744 18.3269 0 
274 1 0.37582 79.5 12.5924 18.3225 0 
101 1 0.376457 79.5 13.051 18.3331 0 
79 1 0.376387 79.5 13.6066 18.4029 0 
191 1 0.419678 79.5 14.0894 18.4322 0 
241 1 0.375449 79.5 14.5951 18.4374 0 
286 1 0.417076 79.5 15.1765 18.4907 0 
146 1 0.418691 79.5 15.7194 18.6625 0 
212 1 0.41762 79.5 4.66033 18.7377 0 
120 1 0.378184 79.5 5.12595 19.002 0 
260 1 0.417822 79.5 5.6191 18.9121 0 
148 1 0.418606 79.5 6.10236 18.9156 0 
243 1 0.376024 79.5 6.49441 18.734 0 
245 1 0.376779 79.5 6.73398 19.0589 0 
163 1 0.376966 79.5 7.16303 19.0454 0 
188 1 0.417316 79.5 7.40184 18.668 0 
63 1 0.377654 79.5 7.59581 19.0479 0 
97 1 0.377275 79.5 7.83192 18.6737 0 
129 1 0.417621 79.5 8.01405 19.0598 0 
75 1 0.376447 79.5 8.24012 18.7083 0 
59 1 0.419658 79.5 8.43536 19.0934 0 
132 1 0.378247 79.5 8.65127 18.7519 0 
108 1 0.37715 79.5 9.06552 18.7688 0 
140 1 0.378892 79.5 9.45107 18.7673 0 
69 1 0.376926 79.5 9.85558 18.7723 0 
92 1 0.417624 79.5 10.2909 18.7701 0 
262 1 0.418034 79.5 10.7066 18.7765 0 
192 1 0.418338 79.5 11.1239 18.7623 0 
58 1 0.415805 79.5 11.5406 18.7237 0 
230 1 0.376846 79.5 11.323 19.1052 0 
155 1 0.37768 79.5 11.958 18.7075 0 
127 1 0.417806 79.5 11.7257 19.0966 0 
49 1 0.419815 79.5 12.1513 19.0773 0 
9 1 0.378113 79.5 12.371 18.6894 0 
302 1 0.377055 79.5 12.8046 18.6817 0 
165 1 0.417616 79.5 12.5782 19.0649 0 
29 1 0.417393 79.5 13.2908 18.6866 0 
221 1 0.419252 79.5 13.0225 19.0601 0 
176 1 0.376448 79.5 13.4662 19.0797 0 
24 1 0.416559 79.5 13.8457 18.8612 0 
107 1 0.375813 79.5 14.3383 18.8638 0 
173 1 0.377039 79.5 14.8281 18.8628 0 
169 1 0.378453 79.5 4.20508 19.1369 0 
33 1 0.378072 79.5 4.75943 19.3053 0 
71 1 0.377916 79.5 5.41719 19.3636 0 
199 1 0.417759 79.5 5.91607 19.3556 0 
166 1 0.418977 79.5 6.40104 19.3443 0 
252 1 0.378093 79.5 6.90455 19.4241 0 
122 1 0.41785 79.5 7.35788 19.4151 0 
218 1 0.418811 79.5 7.80743 19.4343 0 
184 1 0.417741 79.5 8.23609 19.4641 0 
118 1 0.41851 79.5 8.85499 19.1143 0 
15 1 0.377305 79.5 8.6506 19.4607 0 
87 1 0.377593 79.5 9.06829 19.4602 0 
12 1 0.37772 79.5 9.25256 19.1204 0 
94 1 0.419162 79.5 9.64805 19.1118 0 
27 1 0.375782 79.5 9.46146 19.4615 0 
276 1 0.417911 79.5 10.0642 19.112 0 
121 1 0.418093 79.5 9.85624 19.4714 0 
216 1 0.376432 79.5 10.5 19.1205 0 
293 1 0.417075 79.5 10.2907 19.4547 0 
283 1 0.377483 79.5 10.9006 19.1221 0 
284 1 0.376238 79.5 10.6994 19.457 0 
209 1 0.419672 79.5 11.1248 19.4489 0 
41 1 0.375472 79.5 11.5217 19.4682 0 
26 1 0.417817 79.5 11.9343 19.4656 0 
288 1 0.377512 79.5 12.3552 19.4558 0 
45 1 0.41618 79.5 12.7872 19.454 0 
17 1 0.37517 79.5 13.2341 19.4451 0 
266 1 0.376034 79.5 13.7145 19.4027 0 
160 1 0.418475 79.5 14.1529 19.3 0 
30 1 0.376677 79.5 14.6509 19.291 0 
238 1 0.417818 79.5 15.2599 19.1518 0 
174 1 0.419338 79.5 15.9259 19.2521 0 
50 1 0.378881 79.5 4.43552 19.691 0 
21 1 0.420824 79.5 5.07671 19.7195 0 
123 1 0.416947 79.5 5.66165 19.7667 0 
135 1 0.377153 79.5 6.16882 19.7697 0 
161 1 0.416955 79.5 6.63496 19.7759 0 
194 1 0.416887 79.5 7.12021 19.7945 0 
301 1 0.41979 79.5 7.5857 19.7962 0 
32 1 0.375477 79.5 8.02604 19.8163 0 
38 1 0.377736 79.5 8.4453 19.8166 0 
145 1 0.419666 79.5 8.85668 19.8008 0 
253 1 0.415824 79.5 9.27379 19.8056 0 
8 1 0.378024 79.5 9.66979 19.8215 0 
296 1 0.418792 79.5 10.0828 19.813 0 
47 1 0.418289 79.5 10.5 19.808 0 
133 1 0.418748 79.5 10.9137 19.8044 0 
89 1 0.376485 79.5 11.3178 19.8173 0 
285 1 0.37676 79.5 11.7147 19.8171 0 
11 1 0.377588 79.5 12.1365 19.8158 0 
114 1 0.376368 79.5 12.5568 19.8142 0 
220 1 0.375738 79.5 13.007 19.8133 0 
282 1 0.416306 79.5 13.4819 19.792 0 
3 1 0.376593 79.5 13.9583 19.7725 0 
171 1 0.417726 79.5 14.4359 19.7368 0 
83 1 0.419111 79.5 14.9689 19.6873 0 
267 1 0.418107 79.5 15.5207 19.6684 0 
