# LAMMPS data file for rigid bodies

303 atoms

1 atom types

0.0 	 20.0 	 xlo xhi 
0.0 	 20.0 	 ylo yhi 
-1.0 	 1.0 	 zlo zhi 

Atoms

141 1 0.417537 79.5 8.51097 13.733 0 
248 1 0.417624 79.5 9.27598 13.4177 0 
290 1 0.417552 79.5 9.94717 13.3921 0 
142 1 0.376502 79.5 10.6014 13.3897 0 
156 1 0.41736 79.5 7.93381 14.1968 0 
137 1 0.377547 79.5 9.09899 13.9508 0 
206 1 0.377502 79.5 9.69084 13.9122 0 
138 1 0.417163 79.5 10.3012 13.9034 0 
77 1 0.416408 79.5 10.9193 13.8758 0 
159 1 0.418141 79.5 11.5417 13.7955 0 
82 1 0.37548 79.5 12.2721 14.1642 0 
116 1 0.418074 79.5 7.30362 14.2777 0 
154 1 0.377463 79.5 8.50374 14.3003 0 
172 1 0.377906 79.5 8.98415 14.4296 0 
235 1 0.417949 79.5 9.50001 14.3972 0 
215 1 0.417318 79.5 10.0326 14.3825 0 
246 1 0.419558 79.5 10.6071 14.3825 0 
104 1 0.417492 79.5 11.1882 14.3648 0 
28 1 0.376324 79.5 11.7407 14.3332 0 
5 1 0.417956 79.5 12.679 14.6212 0 
211 1 0.376915 79.5 6.58979 14.7955 0 
187 1 0.376835 79.5 7.14029 14.8388 0 
78 1 0.376793 79.5 7.67635 14.7658 0 
300 1 0.417817 79.5 8.21742 14.7411 0 
37 1 0.376521 79.5 8.7337 14.8351 0 
74 1 0.418792 79.5 9.252 14.8632 0 
55 1 0.377258 79.5 9.73736 14.8651 0 
225 1 0.418808 79.5 10.2234 14.8551 0 
270 1 0.377661 79.5 10.689 14.8705 0 
131 1 0.37743 79.5 11.1469 14.8597 0 
195 1 0.376076 79.5 11.6183 14.822 0 
95 1 0.378511 79.5 12.1238 14.7403 0 
139 1 0.377813 79.5 13.2995 14.7096 0 
34 1 0.376733 79.5 6.3317 15.3068 0 
76 1 0.376361 79.5 6.89853 15.3341 0 
56 1 0.417661 79.5 7.42586 15.2921 0 
271 1 0.419038 79.5 7.97403 15.2117 0 
231 1 0.418206 79.5 8.48797 15.2449 0 
226 1 0.418002 79.5 9.00208 15.2866 0 
14 1 0.378044 79.5 9.49036 15.3022 0 
250 1 0.419005 79.5 9.96749 15.3034 0 
96 1 0.375974 79.5 10.4318 15.3123 0 
109 1 0.416555 79.5 10.9046 15.298 0 
239 1 0.376202 79.5 11.3947 15.2751 0 
81 1 0.377631 79.5 11.8827 15.2338 0 
60 1 0.378985 79.5 12.3806 15.1788 0 
205 1 0.417837 79.5 12.9261 15.1573 0 
277 1 0.378085 79.5 13.5434 15.2542 0 
19 1 0.377048 79.5 14.1135 15.3948 0 
292 1 0.419322 79.5 5.63489 15.5905 0 
279 1 0.419009 79.5 6.16374 15.8302 0 
251 1 0.418401 79.5 6.70689 15.8144 0 
249 1 0.37714 79.5 7.22217 15.7962 0 
227 1 0.419731 79.5 7.77296 15.6693 0 
91 1 0.375891 79.5 8.28073 15.6655 0 
128 1 0.417636 79.5 8.76045 15.6975 0 
93 1 0.375858 79.5 9.25589 15.7068 0 
144 1 0.417225 79.5 9.72243 15.7224 0 
234 1 0.376567 79.5 10.1884 15.7371 0 
20 1 0.418644 79.5 10.6451 15.7286 0 
149 1 0.420339 79.5 11.1424 15.7115 0 
86 1 0.418347 79.5 11.6325 15.6873 0 
295 1 0.376364 79.5 12.1137 15.6477 0 
6 1 0.41784 79.5 12.6166 15.629 0 
57 1 0.417312 79.5 13.1747 15.6532 0 
16 1 0.418857 79.5 13.7621 15.8464 0 
236 1 0.417091 79.5 14.4785 15.9282 0 
180 1 0.4178 79.5 5.2732 16.1706 0 
223 1 0.377582 79.5 5.84664 16.256 0 
147 1 0.378206 79.5 6.44274 16.2858 0 
62 1 0.419478 79.5 6.9589 16.2791 0 
103 1 0.376732 79.5 7.57906 16.0888 0 
150 1 0.42017 79.5 8.08319 16.0737 0 
44 1 0.376441 79.5 8.55194 16.101 0 
247 1 0.417974 79.5 9.0313 16.1029 0 
259 1 0.416952 79.5 9.5 16.133 0 
53 1 0.418687 79.5 9.96175 16.1458 0 
275 1 0.375236 79.5 10.4138 16.1363 0 
72 1 0.418442 79.5 10.8886 16.1283 0 
193 1 0.377638 79.5 11.362 16.1102 0 
303 1 0.377701 79.5 11.8415 16.0921 0 
110 1 0.376982 79.5 12.3052 16.0586 0 
203 1 0.418748 79.5 12.8296 16.085 0 
98 1 0.376685 79.5 13.3324 16.1358 0 
256 1 0.417029 79.5 14.0592 16.3317 0 
61 1 0.416969 79.5 4.90358 16.7223 0 
264 1 0.375728 79.5 5.5414 16.7097 0 
100 1 0.41738 79.5 6.12925 16.6898 0 
111 1 0.377387 79.5 6.66375 16.7223 0 
88 1 0.377633 79.5 7.11532 16.8097 0 
85 1 0.378114 79.5 7.38174 16.4675 0 
36 1 0.41802 79.5 7.86431 16.4815 0 
273 1 0.375407 79.5 7.61014 16.8459 0 
113 1 0.376209 79.5 8.33689 16.4835 0 
13 1 0.376492 79.5 8.10655 16.8591 0 
196 1 0.417674 79.5 8.8028 16.4969 0 
52 1 0.417492 79.5 8.5586 16.8783 0 
48 1 0.417895 79.5 9.27862 16.5283 0 
67 1 0.375259 79.5 9.72577 16.5469 0 
73 1 0.418056 79.5 10.177 16.5487 0 
204 1 0.417908 79.5 10.6352 16.5184 0 
207 1 0.375123 79.5 11.1121 16.507 0 
119 1 0.418318 79.5 11.3369 16.8881 0 
18 1 0.417229 79.5 11.5793 16.4896 0 
299 1 0.376562 79.5 11.7904 16.8786 0 
289 1 0.377045 79.5 12.0422 16.4841 0 
278 1 0.377425 79.5 12.2421 16.8673 0 
291 1 0.418671 79.5 12.5162 16.4663 0 
2 1 0.418632 79.5 12.7274 16.876 0 
35 1 0.375085 79.5 13.0477 16.5321 0 
43 1 0.416658 79.5 13.5765 16.5513 0 
112 1 0.37724 79.5 14.1724 16.8494 0 
66 1 0.417743 79.5 14.6574 16.5623 0 
70 1 0.418537 79.5 5.24303 17.2004 0 
257 1 0.417584 79.5 5.84578 17.138 0 
54 1 0.417762 79.5 6.37961 17.1415 0 
124 1 0.377489 79.5 6.86087 17.1768 0 
175 1 0.375285 79.5 7.35833 17.1884 0 
162 1 0.417925 79.5 7.84874 17.2092 0 
64 1 0.37804 79.5 8.31326 17.2417 0 
224 1 0.417151 79.5 8.78037 17.2664 0 
197 1 0.418138 79.5 9.0348 16.9036 0 
202 1 0.416907 79.5 9.25527 17.2974 0 
170 1 0.419066 79.5 9.50279 16.9393 0 
281 1 0.419313 79.5 9.94569 16.9417 0 
106 1 0.418321 79.5 10.1979 17.2887 0 
134 1 0.377548 79.5 10.4153 16.9153 0 
40 1 0.417655 79.5 10.6523 17.278 0 
99 1 0.418162 79.5 10.872 16.8892 0 
39 1 0.417739 79.5 11.1005 17.2765 0 
10 1 0.377297 79.5 11.5533 17.2656 0 
153 1 0.418903 79.5 11.9968 17.2596 0 
214 1 0.375802 79.5 12.4459 17.2474 0 
237 1 0.377021 79.5 13.2453 16.9604 0 
269 1 0.377027 79.5 12.9233 17.2649 0 
167 1 0.376423 79.5 13.7183 17.006 0 
126 1 0.377564 79.5 14.5071 17.2354 0 
105 1 0.378261 79.5 15.0155 17.0424 0 
90 1 0.418215 79.5 4.68034 17.4262 0 
254 1 0.418928 79.5 5.60392 17.595 0 
7 1 0.376836 79.5 6.13332 17.5735 0 
136 1 0.377551 79.5 6.60729 17.5742 0 
232 1 0.41966 79.5 7.1133 17.5577 0 
294 1 0.420196 79.5 7.58972 17.5846 0 
152 1 0.419353 79.5 8.04896 17.6106 0 
210 1 0.417016 79.5 8.48817 17.6295 0 
177 1 0.417786 79.5 8.90324 17.6722 0 
125 1 0.417497 79.5 9.31575 17.7083 0 
168 1 0.377281 79.5 9.72364 17.3352 0 
228 1 0.377094 79.5 9.70656 17.7245 0 
198 1 0.418579 79.5 10.0969 17.6927 0 
102 1 0.419434 79.5 10.5138 17.6749 0 
46 1 0.377328 79.5 10.9152 17.6643 0 
268 1 0.418081 79.5 11.3396 17.6451 0 
233 1 0.376541 79.5 11.7676 17.6388 0 
65 1 0.375901 79.5 12.1998 17.6413 0 
242 1 0.419369 79.5 12.6353 17.6357 0 
23 1 0.377532 79.5 13.0867 17.6401 0 
240 1 0.417923 79.5 13.4764 17.4154 0 
182 1 0.376421 79.5 14.0153 17.3696 0 
130 1 0.41741 79.5 14.3397 17.7647 0 
244 1 0.377185 79.5 14.8568 17.6431 0 
158 1 0.378408 79.5 15.4088 17.4996 0 
265 1 0.4186 79.5 4.5175 18.0479 0 
219 1 0.416465 79.5 5.14257 17.8251 0 
1 1 0.416656 79.5 5.86991 18.0013 0 
25 1 0.418251 79.5 6.36278 18.0106 0 
157 1 0.417922 79.5 6.88041 17.9392 0 
117 1 0.376414 79.5 7.37305 17.9521 0 
189 1 0.374207 79.5 7.82509 17.9772 0 
188 1 0.417316 79.5 8.27042 18.0069 0 
201 1 0.37868 79.5 8.69073 18.0397 0 
143 1 0.378123 79.5 9.09297 18.0614 0 
51 1 0.378133 79.5 9.50543 18.0762 0 
287 1 0.378509 79.5 9.89855 18.0843 0 
262 1 0.418034 79.5 10.3043 18.0618 0 
151 1 0.377236 79.5 10.7154 18.0477 0 
190 1 0.417687 79.5 11.1204 18.0352 0 
255 1 0.419607 79.5 11.5535 18.0284 0 
164 1 0.419166 79.5 11.9865 18.0156 0 
181 1 0.377496 79.5 12.4189 18.0248 0 
31 1 0.376295 79.5 12.8645 18.0122 0 
115 1 0.377962 79.5 13.3458 17.9532 0 
297 1 0.418019 79.5 13.7947 17.8047 0 
185 1 0.37559 79.5 14.0804 18.188 0 
286 1 0.417076 79.5 14.6893 18.1812 0 
179 1 0.419049 79.5 15.2544 18.0765 0 
84 1 0.417941 79.5 4.10139 18.5881 0 
263 1 0.375892 79.5 5.01762 18.3139 0 
4 1 0.418796 79.5 5.52342 18.345 0 
183 1 0.418934 79.5 6.07021 18.4532 0 
245 1 0.376779 79.5 6.46916 18.666 0 
243 1 0.376024 79.5 6.68026 18.3222 0 
217 1 0.420187 79.5 7.15107 18.32 0 
42 1 0.418538 79.5 7.60902 18.3389 0 
186 1 0.417704 79.5 8.05324 18.3699 0 
222 1 0.376423 79.5 8.48416 18.3907 0 
132 1 0.378247 79.5 8.88359 18.4054 0 
213 1 0.418946 79.5 9.29893 18.417 0 
280 1 0.376116 79.5 9.70284 18.4274 0 
140 1 0.378892 79.5 10.1061 18.4275 0 
178 1 0.415965 79.5 10.5199 18.4177 0 
22 1 0.376996 79.5 10.9284 18.403 0 
155 1 0.37768 79.5 11.3448 18.3952 0 
9 1 0.378113 79.5 11.7672 18.3958 0 
80 1 0.376209 79.5 12.1909 18.3848 0 
208 1 0.376279 79.5 12.6496 18.3705 0 
274 1 0.37582 79.5 13.1185 18.337 0 
79 1 0.376387 79.5 13.6093 18.2777 0 
241 1 0.375449 79.5 13.8645 18.6217 0 
107 1 0.375813 79.5 14.3578 18.5426 0 
173 1 0.377039 79.5 15.0435 18.6113 0 
146 1 0.418691 79.5 15.6861 18.5003 0 
212 1 0.41762 79.5 4.67788 18.7093 0 
258 1 0.419432 79.5 5.22851 18.7989 0 
260 1 0.417822 79.5 5.73543 18.84 0 
166 1 0.418977 79.5 6.18812 18.9951 0 
252 1 0.378093 79.5 6.67491 19.0573 0 
200 1 0.417021 79.5 6.93004 18.7029 0 
122 1 0.41785 79.5 7.16524 19.0767 0 
163 1 0.376966 79.5 7.39391 18.7033 0 
129 1 0.417621 79.5 7.61017 19.0742 0 
75 1 0.376447 79.5 7.83591 18.7212 0 
97 1 0.377275 79.5 8.27267 18.7331 0 
118 1 0.41851 79.5 8.057 19.0854 0 
108 1 0.37715 79.5 8.68072 18.7507 0 
184 1 0.417741 79.5 8.48754 19.1035 0 
59 1 0.419658 79.5 9.08414 18.7757 0 
261 1 0.377169 79.5 9.49274 18.7737 0 
276 1 0.417911 79.5 9.8981 18.7724 0 
92 1 0.417624 79.5 10.3137 18.7849 0 
192 1 0.418338 79.5 10.7314 18.7768 0 
58 1 0.415805 79.5 11.1467 18.7523 0 
229 1 0.41843 79.5 11.5664 18.7612 0 
101 1 0.376457 79.5 11.9834 18.7468 0 
29 1 0.417393 79.5 12.427 18.7268 0 
127 1 0.417806 79.5 12.2 19.1028 0 
221 1 0.419252 79.5 12.6716 19.0834 0 
272 1 0.378957 79.5 12.899 18.7095 0 
266 1 0.376034 79.5 13.1395 19.0633 0 
191 1 0.419678 79.5 13.3785 18.6851 0 
17 1 0.37517 79.5 13.6446 19.0322 0 
174 1 0.419338 79.5 14.1383 18.9813 0 
30 1 0.376677 79.5 14.6478 18.8994 0 
24 1 0.416559 79.5 15.4326 19.0408 0 
298 1 0.374614 79.5 4.38443 19.1726 0 
199 1 0.417759 79.5 4.93519 19.2434 0 
148 1 0.418606 79.5 5.46483 19.2855 0 
71 1 0.377916 79.5 5.93493 19.3639 0 
135 1 0.377153 79.5 6.42238 19.4 0 
301 1 0.41979 79.5 6.91087 19.4271 0 
63 1 0.377654 79.5 7.39544 19.4505 0 
218 1 0.418811 79.5 7.82998 19.4505 0 
38 1 0.377736 79.5 8.27732 19.4496 0 
15 1 0.377305 79.5 8.7007 19.4609 0 
69 1 0.376926 79.5 8.8907 19.1232 0 
68 1 0.37735 79.5 9.28462 19.1241 0 
296 1 0.418792 79.5 9.10314 19.4762 0 
94 1 0.419162 79.5 9.67877 19.125 0 
12 1 0.37772 79.5 9.50001 19.4874 0 
216 1 0.376432 79.5 10.099 19.1238 0 
121 1 0.418093 79.5 9.8971 19.4735 0 
89 1 0.376485 79.5 10.527 19.1183 0 
47 1 0.418289 79.5 10.3181 19.453 0 
293 1 0.417075 79.5 10.7422 19.4514 0 
283 1 0.377483 79.5 10.9476 19.1139 0 
230 1 0.376846 79.5 11.3381 19.1135 0 
11 1 0.377588 79.5 11.1384 19.4737 0 
209 1 0.419672 79.5 11.5447 19.4534 0 
41 1 0.375472 79.5 11.7704 19.114 0 
302 1 0.377055 79.5 11.9887 19.4604 0 
49 1 0.419815 79.5 12.4356 19.4683 0 
165 1 0.417616 79.5 12.9093 19.4459 0 
45 1 0.41618 79.5 13.4067 19.4105 0 
282 1 0.416306 79.5 13.903 19.4115 0 
238 1 0.417818 79.5 14.4269 19.3657 0 
176 1 0.376448 79.5 14.9519 19.2635 0 
160 1 0.418475 79.5 15.8642 19.4925 0 
50 1 0.378881 79.5 4.12223 19.6398 0 
120 1 0.378184 79.5 4.68798 19.7001 0 
169 1 0.378453 79.5 5.20565 19.7248 0 
33 1 0.378072 79.5 5.68632 19.7558 0 
123 1 0.416947 79.5 6.16998 19.7729 0 
21 1 0.420824 79.5 6.6614 19.7908 0 
161 1 0.416955 79.5 7.16009 19.7952 0 
32 1 0.375477 79.5 7.61469 19.8145 0 
194 1 0.416887 79.5 8.05908 19.7996 0 
145 1 0.419666 79.5 8.49404 19.7998 0 
87 1 0.377593 79.5 8.90821 19.8204 0 
8 1 0.378024 79.5 9.31584 19.8206 0 
27 1 0.375782 79.5 9.70586 19.8228 0 
253 1 0.415824 79.5 10.1188 19.8154 0 
133 1 0.418748 79.5 10.5341 19.8079 0 
285 1 0.37676 79.5 10.9383 19.8178 0 
284 1 0.376238 79.5 11.3378 19.8176 0 
26 1 0.417817 79.5 11.7731 19.8017 0 
220 1 0.375738 79.5 12.2084 19.8155 0 
288 1 0.377512 79.5 12.6713 19.8139 0 
171 1 0.417726 79.5 13.1635 19.7943 0 
3 1 0.376593 79.5 13.6518 19.7948 0 
114 1 0.376368 79.5 14.1702 19.7807 0 
83 1 0.419111 79.5 14.7342 19.7416 0 
267 1 0.418107 79.5 15.2968 19.6698 0 
