# LAMMPS data file for rigid bodies

303 atoms

1 atom types

0.0 	 20.0 	 xlo xhi 
0.0 	 20.0 	 ylo yhi 
-1.0 	 1.0 	 zlo zhi 

Atoms

141 1 0.417537 79.5 8.80363 13.7308 0 
154 1 0.377463 79.5 9.74937 13.4214 0 
248 1 0.417624 79.5 10.5104 13.65 0 
137 1 0.377547 79.5 9.38782 13.8783 0 
290 1 0.417552 79.5 9.99356 13.9392 0 
159 1 0.418141 79.5 11.0988 13.8466 0 
142 1 0.376502 79.5 11.6015 14.1682 0 
5 1 0.417956 79.5 12.1645 13.9419 0 
187 1 0.376835 79.5 6.7269 14.5722 0 
34 1 0.376733 79.5 7.31959 14.4236 0 
116 1 0.418074 79.5 7.87601 14.2269 0 
156 1 0.41736 79.5 8.46499 14.2364 0 
172 1 0.377906 79.5 9.03164 14.3081 0 
206 1 0.377502 79.5 9.56855 14.3699 0 
55 1 0.377258 79.5 10.0819 14.4371 0 
138 1 0.417163 79.5 10.5833 14.2796 0 
28 1 0.376324 79.5 11.1006 14.4255 0 
95 1 0.378511 79.5 12.1128 14.522 0 
139 1 0.377813 79.5 12.684 14.4196 0 
76 1 0.376361 79.5 7.10034 14.9838 0 
78 1 0.376793 79.5 7.63966 14.8669 0 
271 1 0.419038 79.5 8.1648 14.7592 0 
227 1 0.419731 79.5 8.71213 14.7564 0 
235 1 0.417949 79.5 9.24472 14.7968 0 
215 1 0.417318 79.5 9.74863 14.8535 0 
246 1 0.419558 79.5 10.261 14.8777 0 
131 1 0.37743 79.5 10.7292 14.8262 0 
195 1 0.376076 79.5 11.1901 14.9158 0 
82 1 0.37548 79.5 11.5981 14.6953 0 
104 1 0.417492 79.5 11.9651 15.0322 0 
60 1 0.378985 79.5 12.4928 14.9596 0 
277 1 0.378085 79.5 13.0337 14.8913 0 
19 1 0.377048 79.5 13.5972 14.8169 0 
279 1 0.419009 79.5 5.8041 15.3597 0 
292 1 0.419322 79.5 6.45706 15.1175 0 
211 1 0.376915 79.5 6.89852 15.4777 0 
56 1 0.417661 79.5 7.43427 15.393 0 
300 1 0.417817 79.5 7.95477 15.2891 0 
231 1 0.418206 79.5 8.46729 15.2326 0 
74 1 0.418792 79.5 8.98464 15.2332 0 
37 1 0.376521 79.5 9.48572 15.2735 0 
250 1 0.419005 79.5 9.96958 15.3136 0 
225 1 0.418808 79.5 10.4622 15.3233 0 
77 1 0.416408 79.5 10.9389 15.3258 0 
109 1 0.416555 79.5 11.4453 15.3283 0 
239 1 0.376202 79.5 11.8824 15.4929 0 
81 1 0.377631 79.5 12.3566 15.4493 0 
6 1 0.41784 79.5 12.8576 15.4131 0 
205 1 0.417837 79.5 13.4165 15.3821 0 
16 1 0.418857 79.5 14.0309 15.3301 0 
180 1 0.4178 79.5 5.71442 15.9946 0 
61 1 0.416969 79.5 6.29996 15.688 0 
251 1 0.418401 79.5 6.76186 15.9688 0 
249 1 0.37714 79.5 7.2611 15.8757 0 
103 1 0.376732 79.5 7.76601 15.7766 0 
36 1 0.41802 79.5 8.25059 15.7179 0 
150 1 0.42017 79.5 8.74037 15.6761 0 
226 1 0.418002 79.5 9.24171 15.6727 0 
14 1 0.378044 79.5 9.72509 15.7077 0 
91 1 0.375891 79.5 10.1935 15.7421 0 
144 1 0.417225 79.5 10.665 15.7605 0 
270 1 0.377661 79.5 11.1331 15.759 0 
96 1 0.375974 79.5 11.5873 15.8255 0 
86 1 0.418347 79.5 12.117 15.8885 0 
295 1 0.376364 79.5 12.623 15.8886 0 
112 1 0.37724 79.5 13.1406 15.8567 0 
57 1 0.417312 79.5 13.7215 15.8722 0 
236 1 0.417091 79.5 14.368 15.8556 0 
264 1 0.375728 79.5 5.31529 16.4306 0 
147 1 0.378206 79.5 6.23139 16.2254 0 
223 1 0.377582 79.5 6.65603 16.4433 0 
111 1 0.377387 79.5 7.11196 16.3653 0 
62 1 0.419478 79.5 7.59314 16.2285 0 
273 1 0.375407 79.5 8.06253 16.1626 0 
113 1 0.376209 79.5 8.53001 16.1192 0 
128 1 0.417636 79.5 8.99624 16.0912 0 
259 1 0.416952 79.5 9.48469 16.09 0 
93 1 0.375858 79.5 9.95062 16.1101 0 
234 1 0.376567 79.5 10.4047 16.1454 0 
275 1 0.375236 79.5 10.8486 16.1723 0 
149 1 0.420339 79.5 11.3026 16.1895 0 
303 1 0.377701 79.5 11.7804 16.2378 0 
193 1 0.377638 79.5 12.2517 16.3118 0 
110 1 0.376982 79.5 12.69 16.3376 0 
203 1 0.418748 79.5 13.1548 16.3341 0 
98 1 0.376685 79.5 13.6316 16.3738 0 
105 1 0.378261 79.5 14.1328 16.368 0 
256 1 0.417029 79.5 14.7287 16.3786 0 
70 1 0.418537 79.5 4.89503 16.8723 0 
100 1 0.41738 79.5 5.87047 16.6022 0 
88 1 0.377633 79.5 6.35833 16.7959 0 
54 1 0.417762 79.5 6.87726 16.8597 0 
85 1 0.378114 79.5 7.43224 16.6734 0 
13 1 0.376492 79.5 7.87634 16.612 0 
52 1 0.417492 79.5 8.32528 16.5364 0 
44 1 0.376441 79.5 8.78849 16.5005 0 
281 1 0.419313 79.5 9.24606 16.4908 0 
247 1 0.417974 79.5 9.70968 16.4991 0 
53 1 0.418687 79.5 10.1593 16.5161 0 
207 1 0.375123 79.5 10.6045 16.5435 0 
18 1 0.417229 79.5 11.0386 16.5863 0 
20 1 0.418644 79.5 11.4996 16.6139 0 
72 1 0.418442 79.5 11.9698 16.6666 0 
289 1 0.377045 79.5 12.4273 16.731 0 
35 1 0.375085 79.5 12.8831 16.76 0 
126 1 0.377564 79.5 13.3511 16.797 0 
43 1 0.416658 79.5 13.8431 16.8395 0 
244 1 0.377185 79.5 14.3479 16.8656 0 
257 1 0.417584 79.5 5.50023 17.0014 0 
7 1 0.376836 79.5 6.03512 17.138 0 
136 1 0.377551 79.5 6.54412 17.2384 0 
64 1 0.37804 79.5 7.27603 17.0624 0 
175 1 0.375285 79.5 7.70988 17.0519 0 
196 1 0.417674 79.5 8.13256 16.9913 0 
168 1 0.377281 79.5 8.4111 17.3092 0 
48 1 0.417895 79.5 8.59218 16.9065 0 
99 1 0.418162 79.5 8.83827 17.297 0 
197 1 0.418138 79.5 9.0418 16.8914 0 
202 1 0.416907 79.5 9.27639 17.2885 0 
204 1 0.417908 79.5 9.49414 16.8945 0 
125 1 0.417497 79.5 9.70302 17.2964 0 
67 1 0.375259 79.5 9.92483 16.9002 0 
39 1 0.417739 79.5 10.1254 17.2803 0 
73 1 0.418056 79.5 10.3708 16.9133 0 
46 1 0.377328 79.5 10.5593 17.3018 0 
134 1 0.377548 79.5 10.8003 16.953 0 
299 1 0.376562 79.5 10.985 17.3272 0 
214 1 0.375802 79.5 11.2341 16.9878 0 
153 1 0.418903 79.5 11.6903 17.0311 0 
278 1 0.377425 79.5 12.1542 17.0905 0 
2 1 0.418632 79.5 12.6086 17.15 0 
291 1 0.418671 79.5 13.0824 17.1953 0 
167 1 0.376423 79.5 13.5505 17.25 0 
182 1 0.376421 79.5 14.0309 17.3149 0 
158 1 0.378408 79.5 14.8757 16.9381 0 
66 1 0.417743 79.5 15.4657 17.0169 0 
90 1 0.418215 79.5 4.49564 17.4164 0 
254 1 0.418928 79.5 5.14044 17.4361 0 
1 1 0.416656 79.5 5.70169 17.5198 0 
232 1 0.41966 79.5 6.2169 17.6088 0 
124 1 0.377489 79.5 6.98451 17.3714 0 
25 1 0.418251 79.5 6.69213 17.7206 0 
152 1 0.419353 79.5 7.47894 17.4559 0 
162 1 0.417925 79.5 7.93552 17.4595 0 
189 1 0.374207 79.5 8.2959 17.6748 0 
201 1 0.37868 79.5 8.68424 17.6896 0 
224 1 0.417151 79.5 9.09352 17.6831 0 
143 1 0.378123 79.5 9.50004 17.6786 0 
228 1 0.377094 79.5 9.89438 17.6791 0 
40 1 0.417655 79.5 10.3044 17.6583 0 
106 1 0.418321 79.5 10.7452 17.6762 0 
119 1 0.418318 79.5 11.4221 17.3868 0 
233 1 0.376541 79.5 11.1639 17.7113 0 
242 1 0.419369 79.5 11.8913 17.44 0 
65 1 0.375901 79.5 11.6223 17.7681 0 
269 1 0.377027 79.5 12.3421 17.5067 0 
237 1 0.377021 79.5 12.7942 17.5728 0 
240 1 0.417923 79.5 13.2455 17.6508 0 
297 1 0.418019 79.5 13.7193 17.7065 0 
130 1 0.41741 79.5 14.5358 17.3739 0 
179 1 0.419049 79.5 15.0993 17.4941 0 
4 1 0.418796 79.5 4.82322 17.9102 0 
265 1 0.4186 79.5 5.40339 17.9476 0 
219 1 0.416465 79.5 5.92628 18.018 0 
157 1 0.417922 79.5 6.4078 18.1082 0 
294 1 0.420196 79.5 6.89354 18.171 0 
170 1 0.419066 79.5 7.17339 17.7995 0 
117 1 0.376414 79.5 7.63099 17.8663 0 
210 1 0.417016 79.5 8.02983 17.9673 0 
132 1 0.378247 79.5 8.46951 18.0471 0 
51 1 0.378133 79.5 8.87948 18.0517 0 
222 1 0.376423 79.5 9.28439 18.0525 0 
280 1 0.376116 79.5 9.67388 18.0359 0 
287 1 0.378509 79.5 10.0764 18.0346 0 
198 1 0.418579 79.5 10.4949 18.0291 0 
151 1 0.377236 79.5 10.9238 18.0531 0 
268 1 0.418081 79.5 11.3504 18.0734 0 
181 1 0.377496 79.5 11.8145 18.13 0 
31 1 0.376295 79.5 12.0784 17.8294 0 
255 1 0.419607 79.5 12.2698 18.2174 0 
10 1 0.377297 79.5 12.5357 17.8994 0 
23 1 0.377532 79.5 12.9583 18.0125 0 
115 1 0.377962 79.5 13.3993 18.0969 0 
286 1 0.417076 79.5 14.2116 17.8106 0 
185 1 0.37559 79.5 13.8566 18.1575 0 
173 1 0.377039 79.5 14.711 17.8757 0 
107 1 0.375813 79.5 15.3595 17.9786 0 
263 1 0.375892 79.5 4.51944 18.363 0 
212 1 0.41762 79.5 5.12374 18.3881 0 
183 1 0.418934 79.5 5.66911 18.439 0 
243 1 0.376024 79.5 6.15596 18.5028 0 
188 1 0.417316 79.5 6.63377 18.5534 0 
177 1 0.417786 79.5 7.36449 18.2296 0 
217 1 0.420187 79.5 7.11322 18.6036 0 
42 1 0.418538 79.5 7.79195 18.3243 0 
97 1 0.377275 79.5 8.22439 18.364 0 
75 1 0.376447 79.5 8.65658 18.396 0 
108 1 0.37715 79.5 9.05819 18.4004 0 
261 1 0.377169 79.5 9.45655 18.4017 0 
213 1 0.418946 79.5 9.85369 18.3945 0 
178 1 0.415965 79.5 10.2713 18.3988 0 
102 1 0.419434 79.5 10.6903 18.3969 0 
22 1 0.376996 79.5 11.1065 18.4104 0 
190 1 0.417687 79.5 11.5499 18.4405 0 
164 1 0.419166 79.5 11.9917 18.5312 0 
80 1 0.376209 79.5 12.4227 18.6457 0 
208 1 0.376279 79.5 12.6918 18.3424 0 
29 1 0.417393 79.5 13.1094 18.4692 0 
274 1 0.37582 79.5 13.5469 18.5255 0 
272 1 0.378957 79.5 14.0074 18.568 0 
241 1 0.375449 79.5 14.3771 18.2889 0 
191 1 0.419678 79.5 14.9156 18.3287 0 
146 1 0.418691 79.5 15.5854 18.5013 0 
258 1 0.419432 79.5 4.22658 18.8507 0 
120 1 0.378184 79.5 4.86329 18.8214 0 
199 1 0.417759 79.5 5.39914 18.8592 0 
298 1 0.374614 79.5 5.90924 18.8938 0 
200 1 0.417021 79.5 6.38231 18.9402 0 
186 1 0.417704 79.5 6.86162 18.9862 0 
122 1 0.41785 79.5 7.31842 19.0277 0 
245 1 0.376779 79.5 7.5579 18.6747 0 
63 1 0.377654 79.5 7.76316 19.0551 0 
163 1 0.376966 79.5 7.98544 18.7091 0 
184 1 0.417741 79.5 8.41448 18.7298 0 
129 1 0.417621 79.5 8.17949 19.0913 0 
69 1 0.376926 79.5 8.83458 18.7485 0 
118 1 0.41851 79.5 8.6081 19.1109 0 
59 1 0.419658 79.5 9.24712 18.754 0 
296 1 0.418792 79.5 9.02617 19.1085 0 
140 1 0.378892 79.5 9.64435 18.7593 0 
92 1 0.417624 79.5 10.0497 18.7629 0 
276 1 0.417911 79.5 10.4641 18.7732 0 
262 1 0.418034 79.5 10.8793 18.766 0 
229 1 0.41843 79.5 11.2954 18.7716 0 
155 1 0.37768 79.5 11.7162 18.8203 0 
9 1 0.378113 79.5 12.1488 18.9296 0 
127 1 0.417806 79.5 12.8144 18.8273 0 
302 1 0.377055 79.5 12.496 19.1022 0 
17 1 0.37517 79.5 13.2339 18.9253 0 
221 1 0.419252 79.5 13.6711 18.9559 0 
79 1 0.376387 79.5 14.1355 18.974 0 
160 1 0.418475 79.5 14.5678 18.7701 0 
176 1 0.376448 79.5 15.1079 18.7878 0 
238 1 0.417818 79.5 15.9652 18.9986 0 
84 1 0.417941 79.5 3.93754 19.4199 0 
169 1 0.378453 79.5 4.63931 19.2591 0 
135 1 0.377153 79.5 5.15701 19.2901 0 
166 1 0.418977 79.5 5.65678 19.308 0 
260 1 0.417822 79.5 6.14635 19.3415 0 
148 1 0.418606 79.5 6.63106 19.3742 0 
252 1 0.378093 79.5 7.092 19.4012 0 
218 1 0.418811 79.5 7.54817 19.4139 0 
38 1 0.377736 79.5 7.98668 19.4471 0 
15 1 0.377305 79.5 8.39675 19.4615 0 
87 1 0.377593 79.5 8.82255 19.4613 0 
293 1 0.417075 79.5 9.22226 19.4756 0 
68 1 0.37735 79.5 9.43128 19.1213 0 
121 1 0.418093 79.5 9.63489 19.4828 0 
94 1 0.419162 79.5 9.82744 19.1127 0 
253 1 0.415824 79.5 10.0466 19.4614 0 
216 1 0.376432 79.5 10.2505 19.1205 0 
47 1 0.418289 79.5 10.462 19.4618 0 
230 1 0.376846 79.5 10.6567 19.1195 0 
284 1 0.376238 79.5 10.8551 19.4868 0 
192 1 0.418338 79.5 11.0533 19.1418 0 
209 1 0.419672 79.5 11.2611 19.5024 0 
58 1 0.415805 79.5 11.4732 19.1471 0 
41 1 0.375472 79.5 11.6919 19.5101 0 
101 1 0.376457 79.5 11.867 19.1778 0 
26 1 0.417817 79.5 12.1632 19.4385 0 
288 1 0.377512 79.5 12.5779 19.4794 0 
49 1 0.419815 79.5 12.9589 19.3007 0 
266 1 0.376034 79.5 13.4032 19.3532 0 
282 1 0.416306 79.5 13.8772 19.3804 0 
24 1 0.416559 79.5 14.3811 19.3464 0 
174 1 0.419338 79.5 14.8695 19.2382 0 
30 1 0.376677 79.5 15.4179 19.1874 0 
71 1 0.377916 79.5 4.42024 19.7069 0 
50 1 0.378881 79.5 4.93996 19.7234 0 
33 1 0.378072 79.5 5.42335 19.7413 0 
123 1 0.416947 79.5 5.90287 19.7584 0 
21 1 0.420824 79.5 6.38833 19.7742 0 
161 1 0.416955 79.5 6.86366 19.7857 0 
301 1 0.41979 79.5 7.32029 19.7919 0 
194 1 0.416887 79.5 7.77467 19.7967 0 
32 1 0.375477 79.5 8.19987 19.8149 0 
145 1 0.419666 79.5 8.61743 19.8008 0 
8 1 0.378024 79.5 9.03027 19.8205 0 
12 1 0.37772 79.5 9.43515 19.8232 0 
27 1 0.375782 79.5 9.83951 19.8226 0 
133 1 0.418748 79.5 10.2486 19.8156 0 
285 1 0.37676 79.5 10.6462 19.8198 0 
89 1 0.376485 79.5 11.0355 19.825 0 
283 1 0.377483 79.5 11.4854 19.8255 0 
11 1 0.377588 79.5 11.9168 19.8149 0 
220 1 0.375738 79.5 12.3272 19.8159 0 
114 1 0.376368 79.5 12.7595 19.8135 0 
165 1 0.417616 79.5 13.173 19.7519 0 
45 1 0.41618 79.5 13.635 19.7761 0 
3 1 0.376593 79.5 14.1316 19.7735 0 
171 1 0.417726 79.5 14.6551 19.7446 0 
83 1 0.419111 79.5 15.1917 19.6893 0 
267 1 0.418107 79.5 15.7865 19.6292 0 
