# LAMMPS data file for rigid bodies

303 atoms

1 atom types

0.0 	 20.0 	 xlo xhi 
0.0 	 20.0 	 ylo yhi 
-1.0 	 1.0 	 zlo zhi 

Atoms

141 1 0.417537 79.5 8.49556 13.5156 0 
154 1 0.377463 79.5 9.19368 13.5732 0 
248 1 0.417624 79.5 10.1931 13.3784 0 
142 1 0.376502 79.5 10.7704 13.6478 0 
82 1 0.37548 79.5 11.8366 13.7453 0 
116 1 0.418074 79.5 7.92536 13.8584 0 
156 1 0.41736 79.5 8.79192 14.0116 0 
137 1 0.377547 79.5 9.31631 14.1664 0 
290 1 0.417552 79.5 9.72766 13.7903 0 
138 1 0.417163 79.5 10.2764 13.9853 0 
77 1 0.416408 79.5 11.2919 13.9303 0 
5 1 0.417956 79.5 12.3774 14.0639 0 
187 1 0.376835 79.5 6.81374 14.5779 0 
78 1 0.376793 79.5 7.47904 14.2501 0 
271 1 0.419038 79.5 8.29963 14.2994 0 
172 1 0.377906 79.5 8.87707 14.5244 0 
206 1 0.377502 79.5 9.82153 14.35 0 
215 1 0.417318 79.5 10.3224 14.5242 0 
246 1 0.419558 79.5 10.7963 14.2375 0 
159 1 0.418141 79.5 11.2986 14.5081 0 
28 1 0.376324 79.5 11.8104 14.3168 0 
95 1 0.378511 79.5 12.2936 14.6294 0 
139 1 0.377813 79.5 12.8993 14.4034 0 
211 1 0.376915 79.5 6.41158 15.0388 0 
76 1 0.376361 79.5 7.33658 14.7673 0 
300 1 0.417817 79.5 7.878 14.6927 0 
227 1 0.419731 79.5 8.43963 14.8189 0 
37 1 0.376521 79.5 8.96762 14.993 0 
235 1 0.417949 79.5 9.38961 14.6715 0 
55 1 0.377258 79.5 9.88114 14.8456 0 
225 1 0.418808 79.5 10.3641 15.0191 0 
270 1 0.377661 79.5 10.8181 14.7622 0 
104 1 0.417492 79.5 11.2926 15.0284 0 
195 1 0.376076 79.5 11.7822 14.8278 0 
205 1 0.417837 79.5 12.78 14.9487 0 
277 1 0.378085 79.5 13.3857 14.8191 0 
34 1 0.376733 79.5 6.12603 15.5115 0 
251 1 0.418401 79.5 6.96794 15.1795 0 
56 1 0.417661 79.5 7.52341 15.2468 0 
231 1 0.418206 79.5 8.03785 15.2058 0 
150 1 0.42017 79.5 8.55744 15.3076 0 
226 1 0.418002 79.5 9.05528 15.4576 0 
74 1 0.418792 79.5 9.46452 15.1653 0 
250 1 0.419005 79.5 9.93511 15.3292 0 
96 1 0.375974 79.5 10.3908 15.4814 0 
109 1 0.416555 79.5 10.8292 15.2525 0 
131 1 0.37743 79.5 11.2633 15.5153 0 
81 1 0.377631 79.5 11.7304 15.3037 0 
60 1 0.378985 79.5 12.2321 15.1275 0 
57 1 0.417312 79.5 12.6897 15.4677 0 
16 1 0.418857 79.5 13.247 15.3702 0 
19 1 0.377048 79.5 13.8601 15.2673 0 
279 1 0.419009 79.5 5.6949 15.8551 0 
292 1 0.419322 79.5 6.66573 15.6361 0 
147 1 0.378206 79.5 7.19989 15.6798 0 
249 1 0.37714 79.5 7.69594 15.7056 0 
36 1 0.41802 79.5 8.17667 15.6857 0 
113 1 0.376209 79.5 8.66118 15.7593 0 
128 1 0.417636 79.5 9.13271 15.9178 0 
91 1 0.375891 79.5 9.52601 15.6374 0 
144 1 0.417225 79.5 9.96606 15.803 0 
234 1 0.376567 79.5 10.4126 15.8957 0 
239 1 0.376202 79.5 10.8211 15.7149 0 
149 1 0.420339 79.5 11.2081 15.9806 0 
193 1 0.377638 79.5 11.6757 15.7525 0 
86 1 0.418347 79.5 12.1587 15.6069 0 
6 1 0.41784 79.5 12.5667 15.9528 0 
98 1 0.376685 79.5 13.092 15.8741 0 
236 1 0.417091 79.5 13.657 15.799 0 
256 1 0.417029 79.5 14.3105 15.7895 0 
61 1 0.416969 79.5 5.1921 16.2334 0 
264 1 0.375728 79.5 5.77296 16.4052 0 
180 1 0.4178 79.5 6.32657 16.0655 0 
111 1 0.377387 79.5 6.90561 16.1011 0 
103 1 0.376732 79.5 7.40214 16.1184 0 
62 1 0.419478 79.5 7.87124 16.1495 0 
247 1 0.417974 79.5 8.33738 16.137 0 
44 1 0.376441 79.5 8.79213 16.1687 0 
259 1 0.416952 79.5 9.5272 16.1027 0 
14 1 0.378044 79.5 9.93654 16.2379 0 
53 1 0.418687 79.5 10.3575 16.3063 0 
275 1 0.375236 79.5 10.7886 16.1622 0 
20 1 0.418644 79.5 11.6175 16.1953 0 
110 1 0.376982 79.5 12.0757 16.068 0 
303 1 0.377701 79.5 12.4202 16.4012 0 
295 1 0.376364 79.5 12.9097 16.3162 0 
112 1 0.37724 79.5 13.4381 16.2758 0 
203 1 0.418748 79.5 13.9869 16.2812 0 
66 1 0.417743 79.5 14.6642 16.3983 0 
257 1 0.417584 79.5 4.75929 16.7522 0 
100 1 0.41738 79.5 5.39206 16.8122 0 
223 1 0.377582 79.5 6.23446 16.5568 0 
88 1 0.377633 79.5 6.70511 16.529 0 
54 1 0.417762 79.5 7.19056 16.5417 0 
13 1 0.376492 79.5 7.65264 16.5662 0 
273 1 0.375407 79.5 8.11361 16.5659 0 
196 1 0.417674 79.5 8.58563 16.5356 0 
204 1 0.417908 79.5 8.84762 16.8884 0 
48 1 0.417895 79.5 9.10767 16.4637 0 
73 1 0.418056 79.5 9.55061 16.5465 0 
93 1 0.375858 79.5 9.96311 16.6431 0 
207 1 0.375123 79.5 10.3559 16.7129 0 
299 1 0.376562 79.5 10.7339 16.5859 0 
72 1 0.418442 79.5 11.1489 16.4665 0 
278 1 0.377425 79.5 11.5411 16.6168 0 
289 1 0.377045 79.5 11.9727 16.5012 0 
18 1 0.417229 79.5 12.2666 16.8488 0 
2 1 0.418632 79.5 12.7291 16.7647 0 
291 1 0.418671 79.5 13.216 16.7055 0 
35 1 0.375085 79.5 13.729 16.7568 0 
105 1 0.378261 79.5 14.2353 16.7596 0 
70 1 0.418537 79.5 5.01387 17.2879 0 
254 1 0.418928 79.5 5.5954 17.3302 0 
7 1 0.376836 79.5 5.93451 16.9408 0 
136 1 0.377551 79.5 6.47144 16.9643 0 
162 1 0.417925 79.5 6.96085 16.9711 0 
85 1 0.378114 79.5 7.4233 16.9851 0 
52 1 0.417492 79.5 7.87744 16.9648 0 
64 1 0.37804 79.5 8.3839 16.9109 0 
197 1 0.418138 79.5 8.18964 17.274 0 
143 1 0.378123 79.5 8.63181 17.2792 0 
281 1 0.419313 79.5 9.28687 16.9085 0 
125 1 0.417497 79.5 9.05498 17.2982 0 
168 1 0.377281 79.5 9.7096 16.9735 0 
67 1 0.375259 79.5 10.127 17.0285 0 
134 1 0.377548 79.5 10.5769 17.0293 0 
119 1 0.418318 79.5 10.9815 16.9339 0 
214 1 0.375802 79.5 11.3829 16.9851 0 
242 1 0.419369 79.5 11.8258 16.9424 0 
181 1 0.377496 79.5 11.6144 17.3287 0 
10 1 0.377297 79.5 12.0598 17.3006 0 
153 1 0.418903 79.5 12.509 17.2315 0 
237 1 0.377021 79.5 12.9616 17.1605 0 
126 1 0.377564 79.5 13.4256 17.1214 0 
43 1 0.416658 79.5 14.0107 17.2404 0 
182 1 0.376421 79.5 14.5496 17.1568 0 
244 1 0.377185 79.5 15.0562 16.9436 0 
90 1 0.418215 79.5 4.61325 17.7273 0 
124 1 0.377489 79.5 6.19767 17.3428 0 
1 1 0.416656 79.5 5.90906 17.7256 0 
25 1 0.418251 79.5 6.43631 17.7693 0 
232 1 0.41966 79.5 6.71335 17.3825 0 
175 1 0.375285 79.5 7.19605 17.4003 0 
170 1 0.419066 79.5 7.64153 17.3975 0 
152 1 0.419353 79.5 7.99808 17.6458 0 
224 1 0.417151 79.5 8.44265 17.6669 0 
99 1 0.418162 79.5 8.86981 17.6826 0 
228 1 0.377094 79.5 9.27869 17.7111 0 
202 1 0.416907 79.5 9.47556 17.3333 0 
106 1 0.418321 79.5 9.68602 17.7287 0 
39 1 0.417739 79.5 9.90337 17.3638 0 
198 1 0.418579 79.5 10.1167 17.7403 0 
40 1 0.417655 79.5 10.3505 17.3787 0 
151 1 0.377236 79.5 10.5516 17.7284 0 
46 1 0.377328 79.5 10.7789 17.3714 0 
233 1 0.376541 79.5 10.9718 17.7182 0 
65 1 0.375901 79.5 11.1747 17.3413 0 
164 1 0.419166 79.5 11.4008 17.6965 0 
80 1 0.376209 79.5 11.8397 17.6709 0 
23 1 0.377532 79.5 12.2804 17.6485 0 
31 1 0.376295 79.5 12.7147 17.6113 0 
269 1 0.377027 79.5 13.1462 17.5459 0 
167 1 0.376423 79.5 13.6133 17.5028 0 
297 1 0.418019 79.5 14.3928 17.6636 0 
158 1 0.378408 79.5 14.9429 17.5364 0 
265 1 0.4186 79.5 5.27356 17.7835 0 
263 1 0.375892 79.5 4.94438 18.2036 0 
183 1 0.418934 79.5 5.64323 18.1414 0 
219 1 0.416465 79.5 6.16373 18.1662 0 
157 1 0.417922 79.5 6.68375 18.1826 0 
294 1 0.420196 79.5 6.95795 17.7997 0 
117 1 0.376414 79.5 7.4104 17.8169 0 
189 1 0.374207 79.5 7.15942 18.2128 0 
177 1 0.417786 79.5 7.78669 18.004 0 
97 1 0.377275 79.5 8.23246 18.0314 0 
201 1 0.37868 79.5 8.66769 18.0464 0 
222 1 0.376423 79.5 9.08169 18.0603 0 
51 1 0.378133 79.5 9.49524 18.078 0 
280 1 0.376116 79.5 9.89404 18.0938 0 
102 1 0.419434 79.5 10.334 18.0965 0 
268 1 0.418081 79.5 10.7573 18.0725 0 
22 1 0.376996 79.5 11.1929 18.0571 0 
9 1 0.378113 79.5 11.6278 18.0463 0 
255 1 0.419607 79.5 12.0567 18.0305 0 
274 1 0.37582 79.5 12.5001 18.0059 0 
79 1 0.376387 79.5 12.935 17.9691 0 
240 1 0.417923 79.5 13.4071 17.913 0 
208 1 0.376279 79.5 13.9156 17.8187 0 
115 1 0.377962 79.5 14.2095 18.1621 0 
130 1 0.41741 79.5 14.7586 18.0905 0 
179 1 0.419049 79.5 15.3374 17.9451 0 
258 1 0.419432 79.5 4.28613 18.2833 0 
4 1 0.418796 79.5 5.34592 18.5295 0 
243 1 0.376024 79.5 5.90115 18.5641 0 
217 1 0.420187 79.5 6.41135 18.5762 0 
186 1 0.417704 79.5 6.89788 18.5987 0 
210 1 0.417016 79.5 7.55946 18.3518 0 
75 1 0.376447 79.5 8.01088 18.381 0 
184 1 0.417741 79.5 8.44578 18.3907 0 
108 1 0.37715 79.5 8.87154 18.4043 0 
213 1 0.418946 79.5 9.29064 18.4183 0 
132 1 0.378247 79.5 9.69394 18.4446 0 
178 1 0.415965 79.5 10.0937 18.4365 0 
287 1 0.378509 79.5 10.5411 18.4373 0 
229 1 0.41843 79.5 10.9916 18.4156 0 
190 1 0.417687 79.5 11.424 18.4043 0 
272 1 0.378957 79.5 11.8413 18.4112 0 
127 1 0.417806 79.5 12.2815 18.4021 0 
101 1 0.376457 79.5 12.7201 18.3601 0 
29 1 0.417393 79.5 13.1908 18.3267 0 
241 1 0.375449 79.5 13.6981 18.2471 0 
191 1 0.419678 79.5 13.9701 18.6041 0 
185 1 0.37559 79.5 14.4789 18.5369 0 
286 1 0.417076 79.5 15.0653 18.5837 0 
107 1 0.375813 79.5 15.6367 18.4459 0 
169 1 0.378453 79.5 4.23133 19.0855 0 
84 1 0.417941 79.5 4.69569 18.6994 0 
120 1 0.378184 79.5 5.14301 18.9638 0 
298 1 0.374614 79.5 5.65077 18.9468 0 
260 1 0.417822 79.5 6.15344 18.9716 0 
200 1 0.417021 79.5 6.64289 18.9991 0 
42 1 0.418538 79.5 7.08881 19.0602 0 
188 1 0.417316 79.5 7.33147 18.7005 0 
166 1 0.418977 79.5 7.57214 19.0792 0 
163 1 0.376966 79.5 7.79501 18.7281 0 
122 1 0.41785 79.5 8.22179 18.7564 0 
63 1 0.377654 79.5 8.01943 19.1019 0 
129 1 0.417621 79.5 8.65469 18.7669 0 
59 1 0.419658 79.5 9.07325 18.7731 0 
261 1 0.377169 79.5 9.5 18.778 0 
68 1 0.37735 79.5 9.90109 18.7937 0 
92 1 0.417624 79.5 10.324 18.7783 0 
262 1 0.418034 79.5 10.7671 18.7648 0 
58 1 0.415805 79.5 11.2115 18.7745 0 
155 1 0.37768 79.5 11.6222 18.7709 0 
41 1 0.375472 79.5 12.0421 18.7593 0 
49 1 0.419815 79.5 12.2652 19.1066 0 
302 1 0.377055 79.5 12.5012 18.7526 0 
17 1 0.37517 79.5 12.724 19.1 0 
221 1 0.419252 79.5 12.9523 18.7208 0 
174 1 0.419338 79.5 13.2159 19.0713 0 
24 1 0.416559 79.5 13.4749 18.6744 0 
176 1 0.376448 79.5 13.7059 19.0518 0 
160 1 0.418475 79.5 14.1902 19.013 0 
173 1 0.377039 79.5 14.6755 18.9468 0 
146 1 0.418691 79.5 15.5525 19.0193 0 
71 1 0.377916 79.5 4.77185 19.277 0 
33 1 0.378072 79.5 5.38853 19.3519 0 
212 1 0.41762 79.5 5.89851 19.3667 0 
148 1 0.418606 79.5 6.41041 19.3952 0 
245 1 0.376779 79.5 6.86841 19.4376 0 
301 1 0.41979 79.5 7.32358 19.4424 0 
194 1 0.416887 79.5 7.80418 19.4516 0 
218 1 0.418811 79.5 8.2427 19.4677 0 
15 1 0.377305 79.5 8.44918 19.1212 0 
27 1 0.375782 79.5 8.65997 19.4751 0 
118 1 0.41851 79.5 8.87183 19.1413 0 
94 1 0.419162 79.5 9.299 19.1244 0 
87 1 0.377593 79.5 9.10547 19.4738 0 
140 1 0.378892 79.5 9.69772 19.114 0 
12 1 0.37772 79.5 9.49842 19.4667 0 
69 1 0.376926 79.5 10.1145 19.1157 0 
121 1 0.418093 79.5 9.90246 19.4515 0 
276 1 0.417911 79.5 10.5546 19.1198 0 
47 1 0.418289 79.5 10.3193 19.4556 0 
192 1 0.418338 79.5 10.986 19.1237 0 
293 1 0.417075 79.5 10.7662 19.4754 0 
216 1 0.376432 79.5 11.1756 19.4851 0 
230 1 0.376846 79.5 11.3959 19.1406 0 
209 1 0.419672 79.5 11.8113 19.1248 0 
283 1 0.377483 79.5 11.5818 19.4861 0 
26 1 0.417817 79.5 12.0247 19.4849 0 
45 1 0.41618 79.5 12.4907 19.4705 0 
165 1 0.417616 79.5 12.9616 19.4547 0 
282 1 0.416306 79.5 13.4569 19.4482 0 
266 1 0.376034 79.5 13.9444 19.425 0 
30 1 0.376677 79.5 14.4607 19.39 0 
171 1 0.417726 79.5 15.0444 19.2458 0 
238 1 0.417818 79.5 15.9182 19.5314 0 
50 1 0.378881 79.5 4.43184 19.6721 0 
123 1 0.416947 79.5 5.0489 19.7179 0 
21 1 0.420824 79.5 5.62128 19.7641 0 
199 1 0.417759 79.5 6.15423 19.7793 0 
135 1 0.377153 79.5 6.64768 19.7992 0 
252 1 0.378093 79.5 7.10489 19.8112 0 
161 1 0.416955 79.5 7.57327 19.7986 0 
32 1 0.375477 79.5 8.0295 19.8171 0 
38 1 0.377736 79.5 8.45902 19.8176 0 
145 1 0.419666 79.5 8.88349 19.8025 0 
8 1 0.378024 79.5 9.29513 19.8174 0 
296 1 0.418792 79.5 9.69283 19.8096 0 
253 1 0.415824 79.5 10.1093 19.8107 0 
133 1 0.418748 79.5 10.5288 19.8111 0 
284 1 0.376238 79.5 10.9566 19.8213 0 
285 1 0.37676 79.5 11.3649 19.8187 0 
89 1 0.376485 79.5 11.7885 19.8183 0 
11 1 0.377588 79.5 12.249 19.8172 0 
220 1 0.375738 79.5 12.7161 19.8152 0 
288 1 0.377512 79.5 13.1953 19.8118 0 
114 1 0.376368 79.5 13.7026 19.8031 0 
3 1 0.376593 79.5 14.2111 19.7783 0 
83 1 0.419111 79.5 14.7815 19.7322 0 
267 1 0.418107 79.5 15.3507 19.6811 0 
