# LAMMPS data file for rigid bodies

303 atoms

1 atom types

0.0 	 20.0 	 xlo xhi 
0.0 	 20.0 	 ylo yhi 
-1.0 	 1.0 	 zlo zhi 

Atoms

141 1 0.417537 79.5 7.98478 13.7617 0 
154 1 0.377463 79.5 8.71585 13.6499 0 
248 1 0.417624 79.5 9.38078 13.5264 0 
142 1 0.376502 79.5 10.5543 13.7625 0 
82 1 0.37548 79.5 11.1506 13.714 0 
300 1 0.417817 79.5 8.39991 14.1853 0 
137 1 0.377547 79.5 8.97914 14.1301 0 
172 1 0.377906 79.5 9.50049 14.0811 0 
290 1 0.417552 79.5 9.98366 13.8088 0 
28 1 0.376324 79.5 11.3915 14.2119 0 
5 1 0.417956 79.5 11.9741 14.1106 0 
116 1 0.418074 79.5 7.12542 14.5651 0 
156 1 0.41736 79.5 7.72158 14.3251 0 
227 1 0.419731 79.5 8.75385 14.6274 0 
235 1 0.417949 79.5 9.28781 14.5767 0 
206 1 0.377502 79.5 9.80373 14.4795 0 
138 1 0.417163 79.5 10.2951 14.313 0 
77 1 0.416408 79.5 10.8477 14.261 0 
159 1 0.418141 79.5 11.655 14.6655 0 
95 1 0.378511 79.5 12.6261 14.2959 0 
211 1 0.376915 79.5 6.60852 14.9459 0 
78 1 0.376793 79.5 7.63924 14.8771 0 
271 1 0.419038 79.5 8.18774 14.7014 0 
37 1 0.376521 79.5 9.10539 15.0485 0 
55 1 0.377258 79.5 9.609 14.9591 0 
215 1 0.417318 79.5 10.1152 14.8682 0 
246 1 0.419558 79.5 10.613 14.7693 0 
131 1 0.37743 79.5 11.1302 14.726 0 
195 1 0.376076 79.5 12.2085 14.6688 0 
205 1 0.417837 79.5 12.8515 14.8434 0 
139 1 0.377813 79.5 13.424 14.8237 0 
292 1 0.419322 79.5 5.51671 15.3571 0 
279 1 0.419009 79.5 6.13873 15.356 0 
34 1 0.376733 79.5 6.66254 15.5277 0 
187 1 0.376835 79.5 7.12434 15.1562 0 
76 1 0.376361 79.5 7.58611 15.3695 0 
56 1 0.417661 79.5 8.08184 15.2114 0 
231 1 0.418206 79.5 8.60182 15.1144 0 
91 1 0.375891 79.5 8.95138 15.4985 0 
74 1 0.418792 79.5 9.43508 15.4131 0 
225 1 0.418808 79.5 9.92539 15.341 0 
96 1 0.375974 79.5 10.4152 15.2683 0 
149 1 0.420339 79.5 10.8988 15.2005 0 
270 1 0.377661 79.5 11.3861 15.1566 0 
104 1 0.417492 79.5 11.9014 15.1267 0 
60 1 0.378985 79.5 12.4258 15.1439 0 
277 1 0.378085 79.5 13.1054 15.3599 0 
19 1 0.377048 79.5 13.6701 15.3358 0 
61 1 0.416969 79.5 5.71333 15.9148 0 
251 1 0.418401 79.5 6.28991 15.9494 0 
249 1 0.37714 79.5 7.12122 15.6759 0 
103 1 0.376732 79.5 7.54936 15.8346 0 
62 1 0.419478 79.5 7.99504 15.7096 0 
150 1 0.42017 79.5 8.4711 15.594 0 
128 1 0.417636 79.5 8.79456 15.9554 0 
247 1 0.417974 79.5 9.27075 15.8639 0 
14 1 0.378044 79.5 9.73908 15.7938 0 
250 1 0.419005 79.5 10.2181 15.7228 0 
144 1 0.417225 79.5 10.6932 15.6671 0 
239 1 0.376202 79.5 11.1565 15.62 0 
86 1 0.418347 79.5 11.6376 15.5771 0 
109 1 0.416555 79.5 12.1512 15.5812 0 
81 1 0.377631 79.5 12.6592 15.5747 0 
6 1 0.41784 79.5 13.3068 15.8603 0 
16 1 0.418857 79.5 13.8423 15.8512 0 
236 1 0.417091 79.5 14.3848 15.6397 0 
264 1 0.375728 79.5 5.34352 16.3632 0 
180 1 0.4178 79.5 5.95269 16.4228 0 
223 1 0.377582 79.5 6.79721 16.0662 0 
147 1 0.378206 79.5 7.27112 16.1796 0 
36 1 0.41802 79.5 7.82328 16.208 0 
226 1 0.418002 79.5 8.30958 16.083 0 
259 1 0.416952 79.5 8.65893 16.4128 0 
281 1 0.419313 79.5 9.11618 16.3173 0 
48 1 0.417895 79.5 9.57158 16.2361 0 
53 1 0.418687 79.5 10.032 16.1562 0 
234 1 0.376567 79.5 10.5015 16.1004 0 
275 1 0.375236 79.5 10.9424 16.0637 0 
72 1 0.418442 79.5 11.4053 16.0199 0 
20 1 0.418644 79.5 11.8887 16.0157 0 
278 1 0.377425 79.5 11.6624 16.4309 0 
193 1 0.377638 79.5 12.3722 16.0137 0 
289 1 0.377045 79.5 12.1343 16.4163 0 
295 1 0.376364 79.5 12.8415 16.002 0 
303 1 0.377701 79.5 12.6126 16.4151 0 
112 1 0.37724 79.5 13.1031 16.3914 0 
98 1 0.376685 79.5 13.5876 16.3354 0 
57 1 0.417312 79.5 14.1581 16.2939 0 
66 1 0.417743 79.5 14.7586 16.2043 0 
100 1 0.41738 79.5 4.96638 16.822 0 
54 1 0.417762 79.5 5.62649 16.8626 0 
111 1 0.377387 79.5 6.46857 16.4667 0 
13 1 0.376492 79.5 6.9492 16.5347 0 
85 1 0.378114 79.5 7.41367 16.5936 0 
273 1 0.375407 79.5 7.8306 16.6453 0 
113 1 0.376209 79.5 8.23101 16.5412 0 
64 1 0.37804 79.5 8.52614 16.8545 0 
99 1 0.418162 79.5 8.96425 16.7598 0 
168 1 0.377281 79.5 9.40655 16.6634 0 
207 1 0.375123 79.5 9.85401 16.5772 0 
73 1 0.418056 79.5 10.3219 16.5089 0 
134 1 0.377548 79.5 10.5823 16.88 0 
93 1 0.375858 79.5 10.7599 16.4751 0 
119 1 0.418318 79.5 11.0115 16.8566 0 
18 1 0.417229 79.5 11.2094 16.4467 0 
214 1 0.375802 79.5 11.4552 16.8384 0 
153 1 0.418903 79.5 11.9041 16.8138 0 
2 1 0.418632 79.5 12.3823 16.817 0 
35 1 0.375085 79.5 12.8638 16.8042 0 
110 1 0.376982 79.5 13.3618 16.7894 0 
203 1 0.418748 79.5 13.8787 16.7717 0 
256 1 0.417029 79.5 14.4699 16.7541 0 
105 1 0.378261 79.5 15.053 16.773 0 
257 1 0.417584 79.5 5.31854 17.3017 0 
124 1 0.377489 79.5 6.16659 16.9048 0 
88 1 0.377633 79.5 5.89835 17.331 0 
162 1 0.417925 79.5 6.66402 16.9301 0 
52 1 0.417492 79.5 7.15366 16.9841 0 
196 1 0.417674 79.5 7.6234 17.0377 0 
44 1 0.376441 79.5 8.07572 16.9867 0 
197 1 0.418138 79.5 8.37809 17.2611 0 
67 1 0.375259 79.5 8.81588 17.1829 0 
202 1 0.416907 79.5 9.24442 17.1009 0 
125 1 0.417497 79.5 9.68612 16.9811 0 
204 1 0.417908 79.5 10.1415 16.9082 0 
198 1 0.418579 79.5 9.98116 17.3113 0 
39 1 0.417739 79.5 10.4138 17.2746 0 
233 1 0.376541 79.5 10.8381 17.2505 0 
299 1 0.376562 79.5 11.2597 17.2243 0 
237 1 0.377021 79.5 11.6947 17.2063 0 
23 1 0.377532 79.5 12.1375 17.2036 0 
269 1 0.377027 79.5 12.617 17.2016 0 
291 1 0.418671 79.5 13.1094 17.199 0 
126 1 0.377564 79.5 13.6138 17.2047 0 
244 1 0.377185 79.5 14.1781 17.1865 0 
158 1 0.378408 79.5 14.7263 17.248 0 
179 1 0.419049 79.5 15.339 17.32 0 
70 1 0.418537 79.5 4.67216 17.3949 0 
1 1 0.416656 79.5 5.62609 17.7551 0 
136 1 0.377551 79.5 6.17771 17.7533 0 
25 1 0.418251 79.5 6.40952 17.3543 0 
232 1 0.41966 79.5 6.90481 17.3898 0 
170 1 0.419066 79.5 7.39043 17.4324 0 
294 1 0.420196 79.5 7.87626 17.4286 0 
175 1 0.375285 79.5 8.22722 17.6482 0 
152 1 0.419353 79.5 8.65911 17.5979 0 
224 1 0.417151 79.5 9.08236 17.5306 0 
143 1 0.378123 79.5 9.54262 17.3855 0 
228 1 0.377094 79.5 9.41251 17.7482 0 
106 1 0.418321 79.5 9.8342 17.7019 0 
151 1 0.377236 79.5 10.2421 17.6781 0 
40 1 0.417655 79.5 10.6488 17.6392 0 
46 1 0.377328 79.5 11.0686 17.6033 0 
242 1 0.419369 79.5 11.4974 17.5895 0 
181 1 0.377496 79.5 11.9278 17.5803 0 
10 1 0.377297 79.5 12.3682 17.557 0 
115 1 0.377962 79.5 12.8417 17.5767 0 
43 1 0.416658 79.5 13.3502 17.6162 0 
167 1 0.376423 79.5 13.9122 17.5617 0 
182 1 0.376421 79.5 14.4176 17.6496 0 
286 1 0.417076 79.5 14.9405 17.7726 0 
90 1 0.418215 79.5 4.27767 17.9387 0 
254 1 0.418928 79.5 4.78483 18.2166 0 
7 1 0.376836 79.5 5.08754 17.7784 0 
183 1 0.418934 79.5 5.93063 18.1504 0 
186 1 0.417704 79.5 6.44282 18.1678 0 
243 1 0.376024 79.5 6.67492 17.7859 0 
117 1 0.376414 79.5 6.91818 18.2031 0 
219 1 0.416465 79.5 7.14457 17.821 0 
157 1 0.417922 79.5 7.63168 17.8363 0 
189 1 0.374207 79.5 8.02666 17.9778 0 
188 1 0.417316 79.5 8.45831 18.0031 0 
177 1 0.417786 79.5 8.88422 17.9662 0 
222 1 0.376423 79.5 9.25696 18.0906 0 
213 1 0.418946 79.5 9.65412 18.0776 0 
51 1 0.378133 79.5 10.0735 18.053 0 
280 1 0.376116 79.5 10.4609 18.0276 0 
268 1 0.418081 79.5 10.8767 17.9959 0 
102 1 0.419434 79.5 11.2948 17.979 0 
65 1 0.375901 79.5 11.718 17.9664 0 
164 1 0.419166 79.5 12.1475 17.9556 0 
31 1 0.376295 79.5 12.5759 17.9183 0 
240 1 0.417923 79.5 13.0447 17.9803 0 
297 1 0.418019 79.5 13.684 17.9504 0 
130 1 0.41741 79.5 14.1541 18.0496 0 
241 1 0.375449 79.5 14.6371 18.1999 0 
173 1 0.377039 79.5 15.5066 17.9205 0 
263 1 0.375892 79.5 4.41447 18.6445 0 
265 1 0.4186 79.5 5.34786 18.239 0 
200 1 0.417021 79.5 5.71035 18.575 0 
260 1 0.417822 79.5 6.20812 18.5809 0 
148 1 0.418606 79.5 6.69616 18.5896 0 
42 1 0.418538 79.5 7.16115 18.6196 0 
217 1 0.420187 79.5 7.37796 18.2272 0 
210 1 0.417016 79.5 7.80694 18.32 0 
108 1 0.37715 79.5 8.24166 18.3541 0 
201 1 0.37868 79.5 8.66955 18.3626 0 
132 1 0.378247 79.5 9.05244 18.4088 0 
261 1 0.377169 79.5 9.44873 18.4276 0 
262 1 0.418034 79.5 9.88431 18.4215 0 
287 1 0.378509 79.5 10.2817 18.3977 0 
178 1 0.415965 79.5 10.688 18.3711 0 
22 1 0.376996 79.5 11.0874 18.3703 0 
190 1 0.417687 79.5 11.4962 18.3554 0 
255 1 0.419607 79.5 11.9162 18.3517 0 
80 1 0.376209 79.5 12.3283 18.3508 0 
79 1 0.376387 79.5 12.7123 18.2923 0 
274 1 0.37582 79.5 13.0459 18.4825 0 
208 1 0.376279 79.5 13.389 18.2535 0 
185 1 0.37559 79.5 13.8208 18.4364 0 
191 1 0.419678 79.5 14.2769 18.5362 0 
107 1 0.375813 79.5 15.1229 18.3237 0 
146 1 0.418691 79.5 15.793 18.4659 0 
4 1 0.418796 79.5 5.02152 18.7146 0 
258 1 0.419432 79.5 5.46253 18.9701 0 
169 1 0.378453 79.5 5.9801 18.9896 0 
212 1 0.41762 79.5 6.46381 18.9941 0 
166 1 0.418977 79.5 6.93515 19.0147 0 
245 1 0.376779 79.5 7.37403 19.0354 0 
97 1 0.377275 79.5 7.59035 18.6773 0 
129 1 0.417621 79.5 7.81773 19.0496 0 
75 1 0.376447 79.5 8.02412 18.6989 0 
163 1 0.376966 79.5 8.25016 19.0761 0 
59 1 0.419658 79.5 8.44171 18.7224 0 
118 1 0.41851 79.5 8.85806 18.7596 0 
15 1 0.377305 79.5 8.66605 19.108 0 
140 1 0.378892 79.5 9.25528 18.7758 0 
92 1 0.417624 79.5 9.65173 18.766 0 
68 1 0.37735 79.5 10.0809 18.7636 0 
276 1 0.417911 79.5 9.87315 19.1106 0 
192 1 0.418338 79.5 10.2909 19.0983 0 
58 1 0.415805 79.5 10.4921 18.7363 0 
216 1 0.376432 79.5 10.8984 18.7354 0 
121 1 0.418093 79.5 10.7116 19.0905 0 
283 1 0.377483 79.5 11.1073 19.1076 0 
229 1 0.41843 79.5 11.2956 18.7377 0 
230 1 0.376846 79.5 11.4924 19.0954 0 
155 1 0.37768 79.5 11.7098 18.7286 0 
127 1 0.417806 79.5 11.9111 19.0834 0 
9 1 0.378113 79.5 12.1383 18.7214 0 
101 1 0.376457 79.5 12.3266 19.0855 0 
29 1 0.417393 79.5 12.5887 18.718 0 
221 1 0.419252 79.5 13.0284 18.8932 0 
272 1 0.378957 79.5 13.4513 18.6795 0 
266 1 0.376034 79.5 13.396 19.0967 0 
24 1 0.416559 79.5 13.8412 18.939 0 
174 1 0.419338 79.5 14.321 19.0029 0 
160 1 0.418475 79.5 14.7863 18.7653 0 
176 1 0.376448 79.5 15.334 18.799 0 
298 1 0.374614 79.5 4.08717 19.1471 0 
84 1 0.417941 79.5 4.67734 19.1673 0 
71 1 0.377916 79.5 5.16946 19.3282 0 
33 1 0.378072 79.5 5.72752 19.3684 0 
199 1 0.417759 79.5 6.22697 19.3936 0 
122 1 0.41785 79.5 6.70485 19.4144 0 
63 1 0.377654 79.5 7.15129 19.4125 0 
194 1 0.416887 79.5 7.58729 19.4154 0 
184 1 0.417741 79.5 8.03796 19.4344 0 
218 1 0.418811 79.5 8.45909 19.448 0 
38 1 0.377736 79.5 8.88217 19.4556 0 
12 1 0.37772 79.5 9.07256 19.1232 0 
87 1 0.377593 79.5 9.26205 19.4758 0 
69 1 0.376926 79.5 9.45807 19.1228 0 
296 1 0.418792 79.5 9.6575 19.4661 0 
94 1 0.419162 79.5 10.0886 19.4613 0 
47 1 0.418289 79.5 10.506 19.4516 0 
284 1 0.376238 79.5 10.909 19.4557 0 
89 1 0.376485 79.5 11.2884 19.463 0 
209 1 0.419672 79.5 11.6926 19.4498 0 
41 1 0.375472 79.5 12.1316 19.4459 0 
17 1 0.37517 79.5 12.7163 19.1456 0 
302 1 0.377055 79.5 12.5402 19.4807 0 
165 1 0.417616 79.5 13.0646 19.4031 0 
282 1 0.416306 79.5 13.6048 19.4454 0 
288 1 0.377512 79.5 14.0576 19.3832 0 
30 1 0.376677 79.5 14.6278 19.3347 0 
3 1 0.376593 79.5 15.1107 19.2393 0 
238 1 0.417818 79.5 15.8011 19.1633 0 
120 1 0.378184 79.5 4.36612 19.6572 0 
50 1 0.378881 79.5 4.89789 19.7222 0 
123 1 0.416947 79.5 5.43861 19.7452 0 
21 1 0.420824 79.5 5.968 19.7764 0 
135 1 0.377153 79.5 6.47002 19.796 0 
252 1 0.378093 79.5 6.92946 19.8002 0 
161 1 0.416955 79.5 7.37069 19.7944 0 
301 1 0.41979 79.5 7.82537 19.7963 0 
32 1 0.375477 79.5 8.25896 19.8158 0 
145 1 0.419666 79.5 8.68419 19.801 0 
8 1 0.378024 79.5 9.09264 19.8175 0 
27 1 0.375782 79.5 9.47842 19.8203 0 
293 1 0.417075 79.5 9.87886 19.8144 0 
253 1 0.415824 79.5 10.303 19.8125 0 
133 1 0.418748 79.5 10.7194 19.8055 0 
285 1 0.37676 79.5 11.1151 19.8165 0 
11 1 0.377588 79.5 11.4992 19.8162 0 
26 1 0.417817 79.5 11.9226 19.7992 0 
220 1 0.375738 79.5 12.3472 19.8162 0 
49 1 0.419815 79.5 12.8226 19.7918 0 
45 1 0.41618 79.5 13.3105 19.7918 0 
114 1 0.376368 79.5 13.8484 19.8006 0 
83 1 0.419111 79.5 14.3572 19.7463 0 
171 1 0.417726 79.5 14.9134 19.7294 0 
267 1 0.418107 79.5 15.4851 19.6587 0 
