# LAMMPS data file for rigid bodies

303 atoms

1 atom types

0.0 	 20.0 	 xlo xhi 
0.0 	 20.0 	 ylo yhi 
-1.0 	 1.0 	 zlo zhi 

Atoms

248 1 0.417624 79.5 9.52252 13.4928 0 
142 1 0.376502 79.5 10.3809 13.6045 0 
159 1 0.418141 79.5 11.3585 13.7102 0 
187 1 0.376835 79.5 7.47858 14.1729 0 
116 1 0.418074 79.5 8.05157 13.789 0 
156 1 0.41736 79.5 8.53368 14.1431 0 
141 1 0.417537 79.5 9.0154 13.8259 0 
154 1 0.377463 79.5 9.4418 14.2184 0 
290 1 0.417552 79.5 9.90195 13.9411 0 
138 1 0.417163 79.5 10.8179 13.978 0 
82 1 0.37548 79.5 11.751 14.1642 0 
5 1 0.417956 79.5 12.2714 13.9234 0 
211 1 0.376915 79.5 6.9849 14.5434 0 
271 1 0.419038 79.5 8.01184 14.4171 0 
137 1 0.377547 79.5 8.9853 14.4457 0 
206 1 0.377502 79.5 9.86992 14.5213 0 
215 1 0.417318 79.5 10.3427 14.2691 0 
225 1 0.418808 79.5 10.7677 14.5999 0 
246 1 0.419558 79.5 11.2408 14.3578 0 
195 1 0.376076 79.5 12.1859 14.5401 0 
139 1 0.377813 79.5 12.7255 14.3561 0 
34 1 0.376733 79.5 6.48782 14.8794 0 
76 1 0.376361 79.5 7.03768 15.1053 0 
78 1 0.376793 79.5 7.51344 14.7444 0 
300 1 0.417817 79.5 8.01416 14.9636 0 
172 1 0.377906 79.5 8.50153 14.6949 0 
235 1 0.417949 79.5 8.95968 14.9546 0 
55 1 0.377258 79.5 9.42092 14.7449 0 
74 1 0.418792 79.5 9.83311 15.0405 0 
250 1 0.419005 79.5 10.2963 14.8223 0 
131 1 0.37743 79.5 11.1695 14.916 0 
77 1 0.416408 79.5 11.6669 14.7077 0 
28 1 0.376324 79.5 12.0963 15.0493 0 
95 1 0.378511 79.5 12.6054 14.9107 0 
277 1 0.378085 79.5 13.1617 14.7284 0 
205 1 0.417837 79.5 13.6486 15.0618 0 
292 1 0.419322 79.5 5.96344 15.2755 0 
279 1 0.419009 79.5 6.57848 15.4448 0 
56 1 0.417661 79.5 7.54144 15.268 0 
150 1 0.42017 79.5 8.03556 15.4869 0 
227 1 0.419731 79.5 8.48711 15.2058 0 
231 1 0.418206 79.5 8.93443 15.454 0 
37 1 0.376521 79.5 9.38783 15.2378 0 
234 1 0.376567 79.5 9.80294 15.5194 0 
96 1 0.375974 79.5 10.2478 15.3181 0 
270 1 0.377661 79.5 10.7036 15.1185 0 
109 1 0.416555 79.5 11.1107 15.4107 0 
104 1 0.417492 79.5 11.5908 15.2141 0 
86 1 0.418347 79.5 12.0032 15.5339 0 
295 1 0.376364 79.5 12.5006 15.4052 0 
60 1 0.378985 79.5 13.0244 15.2623 0 
19 1 0.377048 79.5 14.0186 15.5393 0 
61 1 0.416969 79.5 5.47728 15.7992 0 
180 1 0.4178 79.5 6.14417 15.844 0 
147 1 0.378206 79.5 6.6877 15.9633 0 
249 1 0.37714 79.5 7.10017 15.6247 0 
251 1 0.418401 79.5 7.58883 15.7745 0 
103 1 0.376732 79.5 8.05628 15.9659 0 
91 1 0.375891 79.5 8.48651 15.6937 0 
128 1 0.417636 79.5 8.91625 15.9302 0 
226 1 0.418002 79.5 9.36934 15.7061 0 
14 1 0.378044 79.5 9.76318 15.9769 0 
144 1 0.417225 79.5 10.1933 15.7873 0 
149 1 0.420339 79.5 10.645 15.5981 0 
20 1 0.418644 79.5 11.0374 15.9002 0 
239 1 0.376202 79.5 11.5147 15.686 0 
193 1 0.377638 79.5 11.9057 15.9882 0 
81 1 0.377631 79.5 12.3886 15.8741 0 
57 1 0.417312 79.5 12.8883 15.7669 0 
16 1 0.418857 79.5 13.4452 15.6234 0 
236 1 0.417091 79.5 14.4093 15.9703 0 
264 1 0.375728 79.5 5.78132 16.2749 0 
223 1 0.377582 79.5 6.29581 16.3581 0 
111 1 0.377387 79.5 7.17489 16.1085 0 
62 1 0.419478 79.5 7.64286 16.2567 0 
113 1 0.376209 79.5 8.08497 16.4173 0 
36 1 0.41802 79.5 8.48895 16.1537 0 
44 1 0.376441 79.5 8.90921 16.3884 0 
247 1 0.417974 79.5 9.3265 16.1722 0 
53 1 0.418687 79.5 9.71709 16.4221 0 
93 1 0.375858 79.5 10.1469 16.2327 0 
275 1 0.375236 79.5 10.5787 16.0589 0 
289 1 0.377045 79.5 10.9382 16.3427 0 
303 1 0.377701 79.5 11.445 16.1088 0 
72 1 0.418442 79.5 11.807 16.4275 0 
291 1 0.418671 79.5 12.2839 16.326 0 
110 1 0.376982 79.5 12.7593 16.2463 0 
6 1 0.41784 79.5 13.2784 16.1365 0 
98 1 0.376685 79.5 13.8097 16.0711 0 
70 1 0.418537 79.5 5.27526 16.5266 0 
88 1 0.377633 79.5 5.90932 16.7565 0 
136 1 0.377551 79.5 6.40266 16.8344 0 
54 1 0.417762 79.5 6.78769 16.4482 0 
124 1 0.377489 79.5 7.26181 16.5772 0 
85 1 0.378114 79.5 7.70767 16.7094 0 
273 1 0.375407 79.5 8.12778 16.8482 0 
52 1 0.417492 79.5 8.50853 16.6119 0 
196 1 0.417674 79.5 8.90538 16.8445 0 
48 1 0.417895 79.5 9.29339 16.6321 0 
259 1 0.416952 79.5 9.6508 16.882 0 
73 1 0.418056 79.5 10.0891 16.6709 0 
204 1 0.417908 79.5 10.5217 16.4974 0 
207 1 0.375123 79.5 10.8806 16.784 0 
18 1 0.417229 79.5 11.3322 16.5192 0 
278 1 0.377425 79.5 11.705 16.8479 0 
237 1 0.377021 79.5 12.1573 16.7636 0 
35 1 0.375085 79.5 12.6106 16.6945 0 
203 1 0.418748 79.5 13.1044 16.6101 0 
126 1 0.377564 79.5 13.6146 16.5543 0 
112 1 0.37724 79.5 14.1419 16.4914 0 
256 1 0.417029 79.5 14.7667 16.4581 0 
257 1 0.417584 79.5 4.87208 17.0076 0 
100 1 0.41738 79.5 5.50027 17.0879 0 
7 1 0.376836 79.5 6.06858 17.2217 0 
157 1 0.417922 79.5 6.55221 17.3064 0 
25 1 0.418251 79.5 6.88192 16.9278 0 
232 1 0.41966 79.5 7.34716 17.037 0 
162 1 0.417925 79.5 7.78519 17.1546 0 
175 1 0.375285 79.5 8.20172 17.2662 0 
13 1 0.376492 79.5 8.52461 17.0565 0 
197 1 0.418138 79.5 8.8507 17.3021 0 
64 1 0.37804 79.5 9.25237 17.1016 0 
168 1 0.377281 79.5 9.6002 17.307 0 
281 1 0.419313 79.5 10.0248 17.1035 0 
67 1 0.375259 79.5 10.4516 16.9188 0 
134 1 0.377548 79.5 10.3786 17.3209 0 
299 1 0.376562 79.5 10.7574 17.1881 0 
214 1 0.375802 79.5 11.2751 16.9196 0 
119 1 0.418318 79.5 11.1405 17.2927 0 
153 1 0.418903 79.5 11.5854 17.2618 0 
2 1 0.418632 79.5 12.0362 17.1816 0 
115 1 0.377962 79.5 12.4764 17.1249 0 
43 1 0.416658 79.5 12.9335 17.0614 0 
167 1 0.376423 79.5 13.4279 17.0055 0 
244 1 0.377185 79.5 13.925 16.9597 0 
105 1 0.378261 79.5 14.4495 16.9311 0 
66 1 0.417743 79.5 15.1285 16.9621 0 
90 1 0.418215 79.5 4.51025 17.583 0 
254 1 0.418928 79.5 5.1513 17.5403 0 
1 1 0.416656 79.5 5.73718 17.586 0 
189 1 0.374207 79.5 6.25512 17.687 0 
152 1 0.419353 79.5 7.03978 17.4011 0 
294 1 0.420196 79.5 6.73001 17.7717 0 
117 1 0.376414 79.5 7.49852 17.5002 0 
224 1 0.417151 79.5 7.94183 17.5935 0 
177 1 0.417786 79.5 8.43985 17.597 0 
99 1 0.418162 79.5 8.85596 17.7244 0 
170 1 0.419066 79.5 9.23494 17.5479 0 
202 1 0.416907 79.5 9.60321 17.7427 0 
125 1 0.417497 79.5 9.95383 17.5228 0 
46 1 0.377328 79.5 10.3069 17.6956 0 
39 1 0.417739 79.5 10.7041 17.622 0 
106 1 0.418321 79.5 11.1115 17.7064 0 
65 1 0.375901 79.5 11.5067 17.6689 0 
242 1 0.419369 79.5 11.9166 17.6122 0 
10 1 0.377297 79.5 12.3394 17.5483 0 
269 1 0.377027 79.5 12.7599 17.4943 0 
297 1 0.418019 79.5 13.2313 17.4473 0 
240 1 0.417923 79.5 13.7338 17.4182 0 
182 1 0.376421 79.5 14.226 17.3973 0 
158 1 0.378408 79.5 14.7487 17.3687 0 
179 1 0.419049 79.5 15.572 17.4646 0 
265 1 0.4186 79.5 4.86443 18.0591 0 
219 1 0.416465 79.5 5.43896 18.0109 0 
183 1 0.418934 79.5 5.97155 18.0644 0 
243 1 0.376024 79.5 6.45618 18.1426 0 
217 1 0.420187 79.5 6.92856 18.2143 0 
42 1 0.418538 79.5 7.21526 17.8439 0 
222 1 0.376423 79.5 7.66488 17.9184 0 
143 1 0.378123 79.5 8.12567 17.9592 0 
51 1 0.378133 79.5 8.53058 18.0183 0 
228 1 0.377094 79.5 9.28645 18.021 0 
132 1 0.378247 79.5 8.92161 18.1138 0 
280 1 0.376116 79.5 9.66077 18.1308 0 
40 1 0.417655 79.5 10.0357 18.0026 0 
198 1 0.418579 79.5 10.498 18.0388 0 
102 1 0.419434 79.5 10.9119 18.0726 0 
268 1 0.418081 79.5 11.3395 18.0666 0 
233 1 0.376541 79.5 11.748 18.0149 0 
181 1 0.377496 79.5 12.1669 17.9666 0 
31 1 0.376295 79.5 12.5792 17.9108 0 
23 1 0.377532 79.5 13.0118 17.8583 0 
185 1 0.37559 79.5 13.5022 17.8311 0 
274 1 0.37582 79.5 13.7551 18.2085 0 
241 1 0.375449 79.5 14.0135 17.8504 0 
130 1 0.41741 79.5 14.5142 17.8429 0 
286 1 0.417076 79.5 15.1005 17.794 0 
298 1 0.374614 79.5 4.40954 18.3862 0 
263 1 0.375892 79.5 5.20116 18.4607 0 
4 1 0.418796 79.5 5.69604 18.4835 0 
260 1 0.417822 79.5 6.19576 18.5301 0 
200 1 0.417021 79.5 6.6681 18.5858 0 
186 1 0.417704 79.5 7.39179 18.2739 0 
97 1 0.377275 79.5 7.14425 18.6344 0 
188 1 0.417316 79.5 7.84173 18.309 0 
210 1 0.417016 79.5 8.27433 18.355 0 
201 1 0.37868 79.5 8.69049 18.4156 0 
261 1 0.377169 79.5 9.10048 18.4442 0 
108 1 0.37715 79.5 9.47497 18.4545 0 
287 1 0.378509 79.5 9.87464 18.4398 0 
262 1 0.418034 79.5 10.2678 18.3845 0 
178 1 0.415965 79.5 10.6823 18.4241 0 
151 1 0.377236 79.5 11.1173 18.4287 0 
190 1 0.417687 79.5 11.5474 18.4276 0 
164 1 0.419166 79.5 11.9713 18.3645 0 
80 1 0.376209 79.5 12.3941 18.3219 0 
208 1 0.376279 79.5 12.8072 18.2707 0 
255 1 0.419607 79.5 13.2662 18.2232 0 
221 1 0.419252 79.5 13.0373 18.6443 0 
24 1 0.416559 79.5 13.5097 18.6172 0 
17 1 0.37517 79.5 13.9756 18.588 0 
79 1 0.376387 79.5 14.3168 18.3087 0 
191 1 0.419678 79.5 14.8505 18.2714 0 
173 1 0.377039 79.5 15.524 18.2292 0 
84 1 0.417941 79.5 4.1413 18.9446 0 
258 1 0.419432 79.5 4.8326 18.7898 0 
120 1 0.378184 79.5 5.42238 18.9048 0 
148 1 0.418606 79.5 5.92739 18.9365 0 
245 1 0.376779 79.5 6.41119 18.9704 0 
166 1 0.418977 79.5 6.88399 18.994 0 
63 1 0.377654 79.5 7.34113 19.0178 0 
163 1 0.376966 79.5 7.58782 18.6686 0 
184 1 0.417741 79.5 7.78121 19.0492 0 
75 1 0.376447 79.5 8.02168 18.7015 0 
59 1 0.419658 79.5 8.21718 19.0874 0 
213 1 0.418946 79.5 8.45641 18.7439 0 
140 1 0.378892 79.5 8.87614 18.7718 0 
69 1 0.376926 79.5 9.28033 18.7869 0 
68 1 0.37735 79.5 9.68206 18.7804 0 
92 1 0.417624 79.5 10.1034 18.7653 0 
230 1 0.376846 79.5 10.4993 18.7812 0 
192 1 0.418338 79.5 10.9086 18.7721 0 
22 1 0.376996 79.5 11.3268 18.7696 0 
155 1 0.37768 79.5 11.7595 18.7693 0 
29 1 0.417393 79.5 12.1795 18.7353 0 
9 1 0.378113 79.5 12.3792 19.0946 0 
272 1 0.378957 79.5 12.5977 18.6837 0 
127 1 0.417806 79.5 12.8139 19.0556 0 
165 1 0.417616 79.5 13.2798 19.0386 0 
174 1 0.419338 79.5 13.7537 19.0189 0 
30 1 0.376677 79.5 14.23 18.9384 0 
160 1 0.418475 79.5 14.6662 18.7587 0 
107 1 0.375813 79.5 15.2057 18.6704 0 
176 1 0.376448 79.5 15.6234 19.019 0 
212 1 0.41762 79.5 4.62311 19.2769 0 
71 1 0.377916 79.5 5.15841 19.2899 0 
135 1 0.377153 79.5 5.67097 19.3392 0 
199 1 0.417759 79.5 6.15564 19.3709 0 
161 1 0.416955 79.5 6.62728 19.3842 0 
122 1 0.41785 79.5 7.10003 19.3951 0 
129 1 0.417621 79.5 7.55086 19.4124 0 
218 1 0.418811 79.5 8.00725 19.449 0 
15 1 0.377305 79.5 8.43054 19.4668 0 
118 1 0.41851 79.5 8.64615 19.129 0 
12 1 0.37772 79.5 8.86991 19.4756 0 
94 1 0.419162 79.5 9.06418 19.1281 0 
296 1 0.418792 79.5 9.28048 19.4913 0 
121 1 0.418093 79.5 9.48068 19.1292 0 
87 1 0.377593 79.5 9.68485 19.489 0 
276 1 0.417911 79.5 9.89062 19.1186 0 
293 1 0.417075 79.5 10.0819 19.4779 0 
216 1 0.376432 79.5 10.295 19.1164 0 
47 1 0.418289 79.5 10.5 19.453 0 
283 1 0.377483 79.5 10.7026 19.1139 0 
284 1 0.376238 79.5 10.9099 19.4623 0 
209 1 0.419672 79.5 11.1225 19.1294 0 
89 1 0.376485 79.5 11.3138 19.4843 0 
229 1 0.41843 79.5 11.5407 19.1157 0 
58 1 0.415805 79.5 11.7383 19.4813 0 
101 1 0.376457 79.5 11.9645 19.1171 0 
302 1 0.377055 79.5 12.1619 19.4647 0 
49 1 0.419815 79.5 12.5959 19.456 0 
26 1 0.417817 79.5 13.0573 19.4427 0 
266 1 0.376034 79.5 13.5204 19.4228 0 
267 1 0.418107 79.5 14.0374 19.3881 0 
282 1 0.416306 79.5 14.5423 19.3013 0 
146 1 0.418691 79.5 15.0581 19.1865 0 
238 1 0.417818 79.5 15.9365 19.5451 0 
169 1 0.378453 79.5 4.24778 19.659 0 
50 1 0.378881 79.5 4.88909 19.7263 0 
123 1 0.416947 79.5 5.41445 19.7388 0 
252 1 0.378093 79.5 5.91761 19.7693 0 
33 1 0.378072 79.5 6.39007 19.7847 0 
21 1 0.420824 79.5 6.85683 19.7896 0 
194 1 0.416887 79.5 7.32232 19.794 0 
301 1 0.41979 79.5 7.77593 19.7975 0 
32 1 0.375477 79.5 8.22072 19.8162 0 
145 1 0.419666 79.5 8.64566 19.802 0 
38 1 0.377736 79.5 9.06907 19.8232 0 
8 1 0.378024 79.5 9.49771 19.8228 0 
27 1 0.375782 79.5 9.88835 19.8234 0 
253 1 0.415824 79.5 10.3041 19.817 0 
133 1 0.418748 79.5 10.7189 19.8065 0 
285 1 0.37676 79.5 11.1164 19.8173 0 
220 1 0.375738 79.5 11.5172 19.8193 0 
41 1 0.375472 79.5 11.9455 19.8183 0 
11 1 0.377588 79.5 12.3676 19.8146 0 
114 1 0.376368 79.5 12.8199 19.8139 0 
288 1 0.377512 79.5 13.2881 19.8064 0 
45 1 0.41618 79.5 13.7784 19.7827 0 
3 1 0.376593 79.5 14.3008 19.7671 0 
83 1 0.419111 79.5 14.8198 19.7206 0 
171 1 0.417726 79.5 15.3632 19.6538 0 
