# LAMMPS data file for rigid bodies

303 atoms

1 atom types

0.0 	 20.0 	 xlo xhi 
0.0 	 20.0 	 ylo yhi 
-1.0 	 1.0 	 zlo zhi 

Atoms

141 1 0.417537 79.5 8.26857 13.7747 0 
137 1 0.377547 79.5 8.91032 13.7031 0 
248 1 0.417624 79.5 9.49929 13.5797 0 
142 1 0.376502 79.5 10.192 13.4633 0 
159 1 0.418141 79.5 10.8922 13.4562 0 
206 1 0.377502 79.5 9.27162 14.1666 0 
290 1 0.417552 79.5 9.919 13.9756 0 
138 1 0.417163 79.5 10.5344 13.9533 0 
77 1 0.416408 79.5 11.1563 14.0023 0 
82 1 0.37548 79.5 11.7293 13.855 0 
95 1 0.378511 79.5 12.3235 14.1915 0 
116 1 0.418074 79.5 6.91031 14.5615 0 
156 1 0.41736 79.5 7.57589 14.2473 0 
154 1 0.377463 79.5 8.15769 14.3342 0 
227 1 0.419731 79.5 8.72545 14.2447 0 
215 1 0.417318 79.5 9.68525 14.4588 0 
225 1 0.418808 79.5 10.2476 14.4321 0 
246 1 0.419558 79.5 10.7822 14.4654 0 
131 1 0.37743 79.5 11.2977 14.5168 0 
28 1 0.376324 79.5 11.7936 14.4018 0 
139 1 0.377813 79.5 12.7444 14.6071 0 
211 1 0.376915 79.5 6.30089 15.0361 0 
78 1 0.376793 79.5 7.4417 14.8124 0 
172 1 0.377906 79.5 7.96381 14.8049 0 
300 1 0.417817 79.5 8.51768 14.7516 0 
235 1 0.417949 79.5 9.06483 14.7071 0 
55 1 0.377258 79.5 9.50885 14.903 0 
250 1 0.419005 79.5 10.0197 14.8912 0 
96 1 0.375974 79.5 10.5134 14.9069 0 
270 1 0.377661 79.5 11.0275 14.9332 0 
104 1 0.417492 79.5 11.6067 14.9178 0 
5 1 0.417956 79.5 12.1802 14.782 0 
277 1 0.378085 79.5 13.0796 15.0422 0 
19 1 0.377048 79.5 13.6011 14.8527 0 
292 1 0.419322 79.5 5.91682 15.5387 0 
187 1 0.376835 79.5 6.8507 15.1465 0 
34 1 0.376733 79.5 7.32069 15.2982 0 
76 1 0.376361 79.5 7.79373 15.2744 0 
271 1 0.419038 79.5 8.28976 15.2238 0 
231 1 0.418206 79.5 8.80723 15.1952 0 
37 1 0.376521 79.5 9.27345 15.2784 0 
74 1 0.418792 79.5 9.77036 15.3185 0 
14 1 0.378044 79.5 10.2455 15.3417 0 
144 1 0.417225 79.5 10.7129 15.3427 0 
239 1 0.376202 79.5 11.1891 15.3611 0 
81 1 0.377631 79.5 11.6421 15.3821 0 
60 1 0.378985 79.5 12.1013 15.2917 0 
195 1 0.376076 79.5 12.5766 15.1765 0 
16 1 0.418857 79.5 13.4875 15.4531 0 
205 1 0.417837 79.5 14.0808 15.351 0 
61 1 0.416969 79.5 6.52962 15.5995 0 
249 1 0.37714 79.5 7.05559 15.6998 0 
103 1 0.376732 79.5 7.56438 15.7305 0 
56 1 0.417661 79.5 8.05366 15.6979 0 
62 1 0.419478 79.5 8.54113 15.6614 0 
150 1 0.42017 79.5 9.02251 15.6739 0 
226 1 0.418002 79.5 9.50828 15.7076 0 
91 1 0.375891 79.5 9.99588 15.742 0 
234 1 0.376567 79.5 10.4446 15.7603 0 
20 1 0.418644 79.5 10.9153 15.7835 0 
149 1 0.420339 79.5 11.4055 15.7919 0 
109 1 0.416555 79.5 11.9266 15.7606 0 
295 1 0.376364 79.5 12.4383 15.6834 0 
57 1 0.417312 79.5 12.9398 15.5768 0 
6 1 0.41784 79.5 13.3155 15.9903 0 
112 1 0.37724 79.5 13.8424 15.9038 0 
256 1 0.417029 79.5 14.4958 15.8462 0 
279 1 0.419009 79.5 5.61398 16.0724 0 
180 1 0.4178 79.5 6.23783 16.0681 0 
251 1 0.418401 79.5 6.79043 16.1184 0 
147 1 0.378206 79.5 7.3145 16.1266 0 
273 1 0.375407 79.5 7.8303 16.1227 0 
13 1 0.376492 79.5 8.30627 16.1087 0 
36 1 0.41802 79.5 8.77417 16.092 0 
128 1 0.417636 79.5 9.25873 16.1058 0 
259 1 0.416952 79.5 9.73723 16.1207 0 
93 1 0.375858 79.5 10.1977 16.1448 0 
275 1 0.375236 79.5 10.6417 16.1557 0 
18 1 0.417229 79.5 11.1525 16.1975 0 
72 1 0.418442 79.5 11.6764 16.1806 0 
193 1 0.377638 79.5 12.2287 16.1011 0 
86 1 0.418347 79.5 12.7949 16.0829 0 
303 1 0.377701 79.5 12.5096 16.4398 0 
110 1 0.376982 79.5 13.65 16.4176 0 
203 1 0.418748 79.5 14.1764 16.3295 0 
236 1 0.417091 79.5 14.9231 16.3624 0 
70 1 0.418537 79.5 4.96587 16.5432 0 
264 1 0.375728 79.5 5.52389 16.623 0 
100 1 0.41738 79.5 6.05455 16.5587 0 
223 1 0.377582 79.5 6.58005 16.5551 0 
111 1 0.377387 79.5 7.08914 16.5409 0 
52 1 0.417492 79.5 7.58711 16.5155 0 
44 1 0.376441 79.5 8.08332 16.5003 0 
281 1 0.419313 79.5 8.33831 16.8747 0 
113 1 0.376209 79.5 8.55311 16.4902 0 
204 1 0.417908 79.5 8.80193 16.8869 0 
247 1 0.417974 79.5 9.01864 16.4989 0 
48 1 0.417895 79.5 9.48457 16.5225 0 
53 1 0.418687 79.5 9.93115 16.5344 0 
134 1 0.377548 79.5 10.3659 16.5363 0 
73 1 0.418056 79.5 10.8043 16.5502 0 
207 1 0.375123 79.5 11.2275 16.6165 0 
278 1 0.377425 79.5 11.6302 16.609 0 
289 1 0.377045 79.5 12.0426 16.5021 0 
2 1 0.418632 79.5 12.3296 16.8609 0 
291 1 0.418671 79.5 12.8253 16.7616 0 
35 1 0.375085 79.5 13.1667 16.4711 0 
126 1 0.377564 79.5 13.982 16.8364 0 
98 1 0.376685 79.5 14.5051 16.7405 0 
254 1 0.418928 79.5 4.7037 17.1687 0 
7 1 0.376836 79.5 5.27824 17.1115 0 
257 1 0.417584 79.5 5.83114 17.0541 0 
54 1 0.417762 79.5 6.36595 17.0002 0 
85 1 0.378114 79.5 6.87139 16.9434 0 
64 1 0.37804 79.5 7.36618 16.9241 0 
25 1 0.418251 79.5 7.14596 17.3234 0 
196 1 0.417674 79.5 7.85256 16.9058 0 
124 1 0.377489 79.5 7.62832 17.295 0 
162 1 0.417925 79.5 8.1341 17.2734 0 
197 1 0.418138 79.5 8.5977 17.277 0 
202 1 0.416907 79.5 9.25831 16.9101 0 
99 1 0.418162 79.5 9.04688 17.2933 0 
67 1 0.375259 79.5 9.68255 16.9356 0 
143 1 0.378123 79.5 9.47638 17.307 0 
125 1 0.417497 79.5 10.1041 16.9376 0 
228 1 0.377094 79.5 9.87541 17.3214 0 
39 1 0.417739 79.5 10.5427 16.9317 0 
40 1 0.417655 79.5 10.298 17.3287 0 
214 1 0.375802 79.5 10.9779 16.9618 0 
106 1 0.418321 79.5 10.7356 17.3255 0 
153 1 0.418903 79.5 11.4295 17.0052 0 
299 1 0.376562 79.5 11.1677 17.3301 0 
269 1 0.377027 79.5 11.8894 16.9475 0 
237 1 0.377021 79.5 12.1629 17.2879 0 
240 1 0.417923 79.5 12.6285 17.214 0 
167 1 0.376423 79.5 13.0892 17.1259 0 
43 1 0.416658 79.5 13.4857 16.8992 0 
158 1 0.378408 79.5 13.8583 17.3068 0 
105 1 0.378261 79.5 14.3675 17.2128 0 
66 1 0.417743 79.5 14.983 17.0361 0 
90 1 0.418215 79.5 4.50081 17.7749 0 
265 1 0.4186 79.5 5.08783 17.6676 0 
1 1 0.416656 79.5 5.60617 17.5358 0 
88 1 0.377633 79.5 6.14585 17.4426 0 
136 1 0.377551 79.5 6.67382 17.3718 0 
175 1 0.375285 79.5 6.95293 17.7516 0 
152 1 0.419353 79.5 7.41146 17.7021 0 
170 1 0.419066 79.5 7.90674 17.6358 0 
168 1 0.377281 79.5 8.40187 17.6401 0 
222 1 0.376423 79.5 8.84176 17.6569 0 
51 1 0.378133 79.5 9.2703 17.6654 0 
108 1 0.37715 79.5 9.6721 17.685 0 
280 1 0.376116 79.5 10.0734 17.6878 0 
151 1 0.377236 79.5 10.5 17.6896 0 
46 1 0.377328 79.5 10.9273 17.6859 0 
119 1 0.418318 79.5 11.36 17.6795 0 
242 1 0.419369 79.5 11.7018 17.3475 0 
65 1 0.375901 79.5 11.7629 17.7472 0 
10 1 0.377297 79.5 12.1426 17.6858 0 
31 1 0.376295 79.5 12.5421 17.6347 0 
23 1 0.377532 79.5 12.9721 17.5529 0 
115 1 0.377962 79.5 13.4196 17.4329 0 
297 1 0.418019 79.5 14.2175 17.6842 0 
244 1 0.377185 79.5 14.768 17.5644 0 
182 1 0.376421 79.5 15.4004 17.4576 0 
263 1 0.375892 79.5 4.94453 18.1955 0 
4 1 0.418796 79.5 5.47079 18.1059 0 
183 1 0.418934 79.5 5.93942 17.9035 0 
232 1 0.41966 79.5 6.46527 17.783 0 
243 1 0.376024 79.5 6.2723 18.2079 0 
219 1 0.416465 79.5 6.75085 18.165 0 
294 1 0.420196 79.5 7.21752 18.1448 0 
224 1 0.417151 79.5 7.71257 18.025 0 
177 1 0.417786 79.5 8.18612 17.9841 0 
201 1 0.37868 79.5 8.639 17.993 0 
132 1 0.378247 79.5 9.0705 18.0056 0 
261 1 0.377169 79.5 9.47259 18.0355 0 
287 1 0.378509 79.5 9.869 18.0479 0 
198 1 0.418579 79.5 10.2778 18.0427 0 
102 1 0.419434 79.5 10.7131 18.0409 0 
268 1 0.418081 79.5 11.1344 18.0535 0 
233 1 0.376541 79.5 11.5526 18.0787 0 
181 1 0.377496 79.5 11.9773 18.0851 0 
80 1 0.376209 79.5 12.3872 18.0353 0 
208 1 0.376279 79.5 12.8228 17.9641 0 
274 1 0.37582 79.5 13.2743 17.879 0 
241 1 0.375449 79.5 13.7253 17.7882 0 
191 1 0.419678 79.5 14.0462 18.1624 0 
286 1 0.417076 79.5 14.5904 18.0641 0 
130 1 0.41741 79.5 15.1801 17.9745 0 
84 1 0.417941 79.5 4.30704 18.3542 0 
298 1 0.374614 79.5 5.31812 18.5946 0 
260 1 0.417822 79.5 5.88113 18.4626 0 
217 1 0.420187 79.5 6.49316 18.5752 0 
157 1 0.417922 79.5 6.97553 18.573 0 
189 1 0.374207 79.5 7.55415 18.4008 0 
210 1 0.417016 79.5 7.99504 18.372 0 
188 1 0.417316 79.5 8.42849 18.3513 0 
213 1 0.418946 79.5 8.86845 18.3535 0 
69 1 0.376926 79.5 9.27799 18.3772 0 
140 1 0.378892 79.5 9.67924 18.3904 0 
68 1 0.37735 79.5 10.0815 18.4028 0 
178 1 0.415965 79.5 10.5018 18.3999 0 
22 1 0.376996 79.5 10.9178 18.4165 0 
190 1 0.417687 79.5 11.3386 18.4274 0 
164 1 0.419166 79.5 11.7663 18.4475 0 
272 1 0.378957 79.5 12.1967 18.4251 0 
255 1 0.419607 79.5 12.6455 18.3755 0 
24 1 0.416559 79.5 13.1085 18.3085 0 
79 1 0.376387 79.5 13.5634 18.2343 0 
266 1 0.376034 79.5 13.372 18.664 0 
185 1 0.37559 79.5 13.8348 18.596 0 
173 1 0.377039 79.5 14.3667 18.5214 0 
179 1 0.419049 79.5 14.9436 18.4737 0 
146 1 0.418691 79.5 15.6226 18.41 0 
169 1 0.378453 79.5 4.15171 18.9531 0 
212 1 0.41762 79.5 4.77812 18.6988 0 
258 1 0.419432 79.5 5.6828 18.9143 0 
148 1 0.418606 79.5 6.181 18.9114 0 
200 1 0.417021 79.5 6.70487 18.9756 0 
117 1 0.376414 79.5 7.35952 18.7273 0 
163 1 0.376966 79.5 7.13017 19.056 0 
42 1 0.418538 79.5 7.5692 19.0999 0 
186 1 0.417704 79.5 7.80738 18.7526 0 
75 1 0.376447 79.5 8.04259 19.0971 0 
97 1 0.377275 79.5 8.23098 18.7361 0 
184 1 0.417741 79.5 8.46496 19.0939 0 
59 1 0.419658 79.5 8.64276 18.7177 0 
15 1 0.377305 79.5 8.87156 19.1042 0 
118 1 0.41851 79.5 9.05799 18.7448 0 
12 1 0.37772 79.5 9.26566 19.1059 0 
94 1 0.419162 79.5 9.47173 18.7387 0 
121 1 0.418093 79.5 9.66567 19.1084 0 
92 1 0.417624 79.5 9.88624 18.7524 0 
262 1 0.418034 79.5 10.3008 18.7617 0 
58 1 0.415805 79.5 10.7171 18.7688 0 
229 1 0.41843 79.5 11.1328 18.7884 0 
41 1 0.375472 79.5 11.548 18.8032 0 
155 1 0.37768 79.5 11.9791 18.7951 0 
29 1 0.417393 79.5 12.4283 18.7669 0 
221 1 0.419252 79.5 12.6926 19.099 0 
9 1 0.378113 79.5 12.909 18.7184 0 
17 1 0.37517 79.5 13.1643 19.0497 0 
30 1 0.376677 79.5 13.6358 19.0095 0 
160 1 0.418475 79.5 14.1394 18.9491 0 
174 1 0.419338 79.5 14.6687 18.9201 0 
107 1 0.375813 79.5 15.2908 18.8818 0 
50 1 0.378881 79.5 4.62542 19.2225 0 
199 1 0.417759 79.5 5.13001 19.1185 0 
120 1 0.378184 79.5 5.53403 19.356 0 
245 1 0.376779 79.5 5.99212 19.3367 0 
122 1 0.41785 79.5 6.4472 19.3516 0 
301 1 0.41979 79.5 6.90457 19.4222 0 
63 1 0.377654 79.5 7.34377 19.4475 0 
129 1 0.417621 79.5 7.81481 19.4393 0 
218 1 0.418811 79.5 8.26501 19.4587 0 
38 1 0.377736 79.5 8.67402 19.4565 0 
87 1 0.377593 79.5 9.06367 19.4473 0 
296 1 0.418792 79.5 9.45777 19.47 0 
276 1 0.417911 79.5 10.0875 19.1198 0 
293 1 0.417075 79.5 9.87036 19.4701 0 
192 1 0.418338 79.5 10.5034 19.1261 0 
216 1 0.376432 79.5 10.294 19.4704 0 
283 1 0.377483 79.5 10.9253 19.127 0 
47 1 0.418289 79.5 10.7308 19.4707 0 
230 1 0.376846 79.5 11.3302 19.1411 0 
89 1 0.376485 79.5 11.1273 19.4803 0 
209 1 0.419672 79.5 11.5409 19.4817 0 
302 1 0.377055 79.5 11.7573 19.1303 0 
49 1 0.419815 79.5 11.9837 19.4766 0 
101 1 0.376457 79.5 12.1992 19.1204 0 
127 1 0.417806 79.5 12.4389 19.4561 0 
165 1 0.417616 79.5 12.9498 19.4462 0 
45 1 0.41618 79.5 13.4169 19.4116 0 
282 1 0.416306 79.5 13.9179 19.3793 0 
3 1 0.376593 79.5 14.4181 19.3548 0 
238 1 0.417818 79.5 15.0002 19.3116 0 
176 1 0.376448 79.5 15.7312 19.2286 0 
123 1 0.416947 79.5 4.19361 19.6106 0 
71 1 0.377916 79.5 4.78223 19.6965 0 
33 1 0.378072 79.5 5.25682 19.7273 0 
21 1 0.420824 79.5 5.76206 19.7625 0 
166 1 0.418977 79.5 6.24337 19.7677 0 
135 1 0.377153 79.5 6.695 19.7979 0 
252 1 0.378093 79.5 7.13735 19.8112 0 
161 1 0.416955 79.5 7.58116 19.7967 0 
194 1 0.416887 79.5 8.0331 19.8029 0 
32 1 0.375477 79.5 8.47069 19.8172 0 
145 1 0.419666 79.5 8.88162 19.8008 0 
27 1 0.375782 79.5 9.2797 19.8213 0 
8 1 0.378024 79.5 9.67254 19.8213 0 
253 1 0.415824 79.5 10.0866 19.8131 0 
133 1 0.418748 79.5 10.5 19.8091 0 
284 1 0.376238 79.5 10.9173 19.8207 0 
285 1 0.37676 79.5 11.3203 19.8196 0 
11 1 0.377588 79.5 11.7558 19.8193 0 
220 1 0.375738 79.5 12.2084 19.8171 0 
26 1 0.417817 79.5 12.6865 19.7969 0 
114 1 0.376368 79.5 13.1771 19.8099 0 
171 1 0.417726 79.5 13.672 19.7869 0 
288 1 0.377512 79.5 14.181 19.7694 0 
83 1 0.419111 79.5 14.7184 19.739 0 
267 1 0.418107 79.5 15.3774 19.6849 0 
