# LAMMPS data file for rigid bodies

303 atoms

1 atom types

0.0 	 20.0 	 xlo xhi 
0.0 	 20.0 	 ylo yhi 
-1.0 	 1.0 	 zlo zhi 

Atoms

141 1 0.417537 79.5 8.43694 13.6347 0 
154 1 0.377463 79.5 9.02751 13.7618 0 
248 1 0.417624 79.5 9.6395 13.488 0 
290 1 0.417552 79.5 10.2948 13.5437 0 
142 1 0.376502 79.5 10.9205 13.5685 0 
28 1 0.376324 79.5 11.5817 13.6105 0 
116 1 0.418074 79.5 7.68193 14.0937 0 
156 1 0.41736 79.5 8.31711 14.201 0 
137 1 0.377547 79.5 9.50012 14.033 0 
215 1 0.417318 79.5 10.0476 14.0847 0 
138 1 0.417163 79.5 10.6293 14.0744 0 
159 1 0.418141 79.5 11.2305 14.0766 0 
82 1 0.37548 79.5 11.8382 14.1234 0 
139 1 0.377813 79.5 12.4105 14.114 0 
271 1 0.419038 79.5 7.30186 14.6338 0 
300 1 0.417817 79.5 7.91989 14.6457 0 
172 1 0.377906 79.5 8.91885 14.2978 0 
206 1 0.377502 79.5 9.42747 14.5012 0 
55 1 0.377258 79.5 9.90685 14.5849 0 
246 1 0.419558 79.5 10.4106 14.5711 0 
77 1 0.416408 79.5 10.9624 14.551 0 
104 1 0.417492 79.5 11.5242 14.5705 0 
195 1 0.376076 79.5 12.0761 14.6169 0 
5 1 0.417956 79.5 12.68 14.626 0 
187 1 0.376835 79.5 6.6924 14.759 0 
76 1 0.376361 79.5 7.62203 15.1109 0 
150 1 0.42017 79.5 8.19619 15.11 0 
227 1 0.419731 79.5 8.5322 14.6974 0 
235 1 0.417949 79.5 9.06278 14.8208 0 
37 1 0.376521 79.5 9.60103 14.9564 0 
225 1 0.418808 79.5 10.1419 15.0374 0 
270 1 0.377661 79.5 10.7062 14.9754 0 
131 1 0.37743 79.5 11.2442 14.9952 0 
60 1 0.378985 79.5 11.7561 15.0439 0 
205 1 0.417837 79.5 12.3123 15.0787 0 
277 1 0.378085 79.5 13.2714 14.7255 0 
292 1 0.419322 79.5 5.92449 15.4524 0 
211 1 0.376915 79.5 6.54506 15.3199 0 
78 1 0.376793 79.5 7.07243 15.1913 0 
231 1 0.418206 79.5 7.91866 15.5332 0 
74 1 0.418792 79.5 8.72496 15.1973 0 
226 1 0.418002 79.5 9.25897 15.291 0 
250 1 0.419005 79.5 9.7931 15.3884 0 
96 1 0.375974 79.5 10.4767 15.3613 0 
109 1 0.416555 79.5 10.9782 15.3851 0 
81 1 0.377631 79.5 11.4681 15.4461 0 
86 1 0.418347 79.5 11.9726 15.4951 0 
95 1 0.378511 79.5 12.8723 15.1556 0 
16 1 0.418857 79.5 13.4965 15.2667 0 
19 1 0.377048 79.5 14.0515 15.5273 0 
61 1 0.416969 79.5 5.3685 15.8985 0 
279 1 0.419009 79.5 6.37678 15.8456 0 
34 1 0.376733 79.5 6.88004 15.7752 0 
56 1 0.417661 79.5 7.37943 15.5962 0 
62 1 0.419478 79.5 7.7267 15.9771 0 
36 1 0.41802 79.5 8.41927 15.6012 0 
128 1 0.417636 79.5 8.9087 15.6596 0 
91 1 0.375891 79.5 9.37535 15.7325 0 
14 1 0.378044 79.5 9.79138 15.8324 0 
144 1 0.417225 79.5 10.2086 15.7154 0 
149 1 0.420339 79.5 10.7041 15.7752 0 
193 1 0.377638 79.5 11.1848 15.822 0 
239 1 0.376202 79.5 11.6623 15.8764 0 
303 1 0.377701 79.5 12.1581 15.9426 0 
57 1 0.417312 79.5 12.5053 15.5659 0 
6 1 0.41784 79.5 13.0477 15.647 0 
98 1 0.376685 79.5 13.5748 15.8325 0 
236 1 0.417091 79.5 14.6636 15.8822 0 
257 1 0.417584 79.5 4.95049 16.4347 0 
180 1 0.4178 79.5 5.88848 16.1463 0 
249 1 0.37714 79.5 6.36841 16.3529 0 
251 1 0.418401 79.5 6.84583 16.3759 0 
103 1 0.376732 79.5 7.23284 16.0934 0 
147 1 0.378206 79.5 7.55992 16.4013 0 
111 1 0.377387 79.5 7.99889 16.4088 0 
85 1 0.378114 79.5 8.1965 16.0121 0 
113 1 0.376209 79.5 8.63654 16.0595 0 
247 1 0.417974 79.5 9.0811 16.1079 0 
259 1 0.416952 79.5 9.53181 16.1789 0 
93 1 0.375858 79.5 9.99752 16.2015 0 
20 1 0.418644 79.5 10.4242 16.1481 0 
234 1 0.376567 79.5 10.8998 16.1849 0 
278 1 0.377425 79.5 11.3641 16.2227 0 
72 1 0.418442 79.5 11.8469 16.3077 0 
289 1 0.377045 79.5 12.3225 16.3711 0 
295 1 0.376364 79.5 12.6548 16.0297 0 
112 1 0.37724 79.5 13.1467 16.1353 0 
203 1 0.418748 79.5 13.6401 16.3553 0 
256 1 0.417029 79.5 14.1192 16.1228 0 
264 1 0.375728 79.5 5.52806 16.5683 0 
223 1 0.377582 79.5 6.0347 16.7225 0 
54 1 0.417762 79.5 6.53969 16.8232 0 
124 1 0.377489 79.5 7.22836 16.6612 0 
13 1 0.376492 79.5 7.74058 16.7913 0 
273 1 0.375407 79.5 8.42853 16.4459 0 
196 1 0.417674 79.5 8.17868 16.8348 0 
44 1 0.376441 79.5 8.84981 16.4961 0 
52 1 0.417492 79.5 8.62671 16.8733 0 
48 1 0.417895 79.5 9.27865 16.5517 0 
53 1 0.418687 79.5 9.75029 16.577 0 
275 1 0.375236 79.5 10.1839 16.5844 0 
18 1 0.417229 79.5 10.6125 16.5517 0 
153 1 0.418903 79.5 11.0815 16.5857 0 
214 1 0.375802 79.5 11.529 16.6245 0 
2 1 0.418632 79.5 12.0392 16.7522 0 
110 1 0.376982 79.5 12.7901 16.4756 0 
291 1 0.418671 79.5 12.5033 16.8106 0 
35 1 0.375085 79.5 13.208 16.6044 0 
43 1 0.416658 79.5 13.5851 16.884 0 
126 1 0.377564 79.5 14.0634 16.706 0 
66 1 0.417743 79.5 14.5898 16.5126 0 
7 1 0.376836 79.5 5.12199 16.9911 0 
100 1 0.41738 79.5 5.6672 17.0986 0 
88 1 0.377633 79.5 6.18074 17.208 0 
1 1 0.416656 79.5 6.64756 17.3302 0 
136 1 0.377551 79.5 6.97247 17.0023 0 
162 1 0.417925 79.5 7.43854 17.0964 0 
175 1 0.375285 79.5 7.91445 17.2042 0 
152 1 0.419353 79.5 8.36551 17.2612 0 
170 1 0.419066 79.5 8.8075 17.2973 0 
64 1 0.37804 79.5 9.05383 16.9237 0 
281 1 0.419313 79.5 9.2497 17.3157 0 
73 1 0.418056 79.5 9.49818 16.9445 0 
99 1 0.418162 79.5 9.69553 17.3312 0 
207 1 0.375123 79.5 9.94276 16.965 0 
67 1 0.375259 79.5 10.1156 17.3332 0 
299 1 0.376562 79.5 10.355 16.9557 0 
39 1 0.417739 79.5 10.5335 17.3326 0 
119 1 0.418318 79.5 10.7912 16.9479 0 
65 1 0.375901 79.5 11.2447 16.9883 0 
242 1 0.419369 79.5 11.6868 17.0158 0 
237 1 0.377021 79.5 12.2065 17.2044 0 
269 1 0.377027 79.5 12.6501 17.2058 0 
167 1 0.376423 79.5 13.0381 17.0063 0 
115 1 0.377962 79.5 13.9376 17.2327 0 
244 1 0.377185 79.5 14.4292 17.0775 0 
105 1 0.378261 79.5 14.995 16.9205 0 
70 1 0.418537 79.5 4.66991 17.3844 0 
219 1 0.416465 79.5 5.28684 17.5138 0 
254 1 0.418928 79.5 5.84234 17.5981 0 
157 1 0.417922 79.5 6.33367 17.7055 0 
25 1 0.418251 79.5 7.13785 17.451 0 
294 1 0.420196 79.5 7.62028 17.53 0 
224 1 0.417151 79.5 8.10565 17.6148 0 
168 1 0.377281 79.5 8.56976 17.667 0 
197 1 0.418138 79.5 9.01074 17.6933 0 
204 1 0.417908 79.5 9.45393 17.7052 0 
125 1 0.417497 79.5 9.88853 17.7149 0 
134 1 0.377548 79.5 10.3001 17.6908 0 
46 1 0.377328 79.5 10.7264 17.6981 0 
40 1 0.417655 79.5 10.9759 17.3341 0 
151 1 0.377236 79.5 11.4171 17.3748 0 
106 1 0.418321 79.5 11.1646 17.7091 0 
181 1 0.377496 79.5 11.8358 17.3942 0 
102 1 0.419434 79.5 11.6337 17.7691 0 
268 1 0.418081 79.5 12.1153 17.6904 0 
233 1 0.376541 79.5 12.5334 17.5893 0 
10 1 0.377297 79.5 12.9913 17.4766 0 
240 1 0.417923 79.5 13.432 17.3416 0 
185 1 0.37559 79.5 13.7768 17.6933 0 
182 1 0.376421 79.5 14.279 17.5806 0 
297 1 0.418019 79.5 14.8122 17.4747 0 
158 1 0.378408 79.5 15.4087 17.3634 0 
265 1 0.4186 79.5 4.31335 17.9762 0 
90 1 0.418215 79.5 4.93044 17.947 0 
183 1 0.418934 79.5 5.52246 18.0019 0 
243 1 0.376024 79.5 6.04257 18.082 0 
189 1 0.374207 79.5 6.52502 18.1523 0 
232 1 0.41966 79.5 6.82205 17.7892 0 
217 1 0.420187 79.5 7.00404 18.2069 0 
117 1 0.376414 79.5 7.32176 17.8663 0 
210 1 0.417016 79.5 7.80655 17.9363 0 
202 1 0.416907 79.5 8.31694 18.0034 0 
222 1 0.376423 79.5 8.78595 18.0317 0 
143 1 0.378123 79.5 9.23267 18.0551 0 
228 1 0.377094 79.5 9.6527 18.0686 0 
51 1 0.378133 79.5 10.0783 18.0678 0 
198 1 0.418579 79.5 10.4893 18.0406 0 
280 1 0.376116 79.5 10.9224 18.0443 0 
22 1 0.376996 79.5 11.3515 18.06 0 
190 1 0.417687 79.5 11.9225 18.0927 0 
31 1 0.376295 79.5 12.4192 17.9884 0 
23 1 0.377532 79.5 12.866 17.8868 0 
208 1 0.376279 79.5 13.3166 17.8057 0 
80 1 0.376209 79.5 13.6397 18.145 0 
286 1 0.417076 79.5 14.1222 18.0498 0 
241 1 0.375449 79.5 14.6268 17.9756 0 
130 1 0.41741 79.5 15.2145 17.9128 0 
263 1 0.375892 79.5 4.64323 18.4618 0 
4 1 0.418796 79.5 5.20983 18.4238 0 
260 1 0.417822 79.5 5.74531 18.4726 0 
186 1 0.417704 79.5 6.24427 18.5259 0 
184 1 0.417741 79.5 6.72193 18.5829 0 
42 1 0.418538 79.5 7.46615 18.2741 0 
188 1 0.417316 79.5 7.18351 18.6359 0 
177 1 0.417786 79.5 7.9021 18.3439 0 
201 1 0.37868 79.5 8.29581 18.3994 0 
97 1 0.377275 79.5 8.67695 18.3913 0 
132 1 0.378247 79.5 9.06742 18.3947 0 
261 1 0.377169 79.5 9.46074 18.4091 0 
262 1 0.418034 79.5 9.87169 18.4147 0 
287 1 0.378509 79.5 10.2861 18.4088 0 
178 1 0.415965 79.5 10.7112 18.3911 0 
192 1 0.418338 79.5 11.1266 18.4061 0 
229 1 0.41843 79.5 11.5583 18.3973 0 
9 1 0.378113 79.5 11.9397 18.5026 0 
255 1 0.419607 79.5 12.3186 18.3806 0 
164 1 0.419166 79.5 12.7569 18.3034 0 
272 1 0.378957 79.5 13.198 18.2292 0 
29 1 0.417393 79.5 13.0362 18.6623 0 
274 1 0.37582 79.5 13.4891 18.5822 0 
191 1 0.419678 79.5 13.9541 18.5214 0 
107 1 0.375813 79.5 14.4413 18.4499 0 
173 1 0.377039 79.5 14.9509 18.3744 0 
179 1 0.419049 79.5 15.7053 18.2794 0 
84 1 0.417941 79.5 4.18926 18.8475 0 
298 1 0.374614 79.5 4.95687 18.8687 0 
212 1 0.41762 79.5 5.47084 18.9002 0 
148 1 0.418606 79.5 5.97685 18.9353 0 
200 1 0.417021 79.5 6.46779 18.9757 0 
245 1 0.376779 79.5 6.91948 19.0089 0 
166 1 0.418977 79.5 7.37339 19.0364 0 
108 1 0.37715 79.5 7.6328 18.6902 0 
163 1 0.376966 79.5 7.81578 19.076 0 
75 1 0.376447 79.5 8.04452 18.7434 0 
213 1 0.418946 79.5 8.46504 18.7603 0 
59 1 0.419658 79.5 8.88708 18.7585 0 
140 1 0.378892 79.5 9.28495 18.7574 0 
69 1 0.376926 79.5 9.67011 18.7577 0 
68 1 0.37735 79.5 10.0821 18.7543 0 
92 1 0.417624 79.5 9.87406 19.0979 0 
276 1 0.417911 79.5 10.5 18.7453 0 
293 1 0.417075 79.5 10.2883 19.0968 0 
230 1 0.376846 79.5 10.9035 18.7636 0 
216 1 0.376432 79.5 10.6969 19.1062 0 
58 1 0.415805 79.5 11.3254 18.7719 0 
155 1 0.37768 79.5 11.7192 18.8191 0 
101 1 0.376457 79.5 12.1604 18.8109 0 
127 1 0.417806 79.5 12.5833 18.7386 0 
17 1 0.37517 79.5 12.8363 19.0747 0 
24 1 0.416559 79.5 13.3149 19.0117 0 
79 1 0.376387 79.5 13.777 18.9587 0 
176 1 0.376448 79.5 14.2539 18.9105 0 
160 1 0.418475 79.5 14.7589 18.8543 0 
146 1 0.418691 79.5 15.3466 18.7474 0 
258 1 0.419432 79.5 4.62262 19.2519 0 
71 1 0.377916 79.5 5.19511 19.315 0 
120 1 0.378184 79.5 5.7146 19.3394 0 
199 1 0.417759 79.5 6.21282 19.372 0 
135 1 0.377153 79.5 6.67647 19.3977 0 
301 1 0.41979 79.5 7.11605 19.4093 0 
122 1 0.41785 79.5 7.58367 19.4234 0 
129 1 0.417621 79.5 8.23878 19.1199 0 
63 1 0.377654 79.5 8.02204 19.4523 0 
15 1 0.377305 79.5 8.46934 19.4723 0 
118 1 0.41851 79.5 8.66896 19.1259 0 
38 1 0.377736 79.5 8.87504 19.4664 0 
87 1 0.377593 79.5 9.06848 19.1271 0 
27 1 0.375782 79.5 9.28559 19.4682 0 
94 1 0.419162 79.5 9.46293 19.1143 0 
12 1 0.37772 79.5 9.6696 19.4679 0 
121 1 0.418093 79.5 10.0812 19.4551 0 
47 1 0.418289 79.5 10.5 19.4508 0 
209 1 0.419672 79.5 11.0989 19.1215 0 
284 1 0.376238 79.5 10.901 19.464 0 
283 1 0.377483 79.5 11.2959 19.4863 0 
41 1 0.375472 79.5 11.5073 19.1571 0 
11 1 0.377588 79.5 11.7112 19.4972 0 
26 1 0.417817 79.5 11.9374 19.1603 0 
302 1 0.377055 79.5 12.3804 19.131 0 
288 1 0.377512 79.5 12.1603 19.4947 0 
49 1 0.419815 79.5 12.6147 19.455 0 
165 1 0.417616 79.5 13.0973 19.4134 0 
221 1 0.419252 79.5 13.5865 19.3902 0 
282 1 0.416306 79.5 14.0652 19.3525 0 
266 1 0.376034 79.5 14.5515 19.3163 0 
238 1 0.417818 79.5 15.1113 19.2534 0 
174 1 0.419338 79.5 15.7887 19.163 0 
169 1 0.378453 79.5 4.26581 19.6546 0 
50 1 0.378881 79.5 4.89433 19.7197 0 
123 1 0.416947 79.5 5.43776 19.7423 0 
21 1 0.420824 79.5 5.95594 19.7658 0 
33 1 0.378072 79.5 6.44902 19.7835 0 
252 1 0.378093 79.5 6.89254 19.7975 0 
161 1 0.416955 79.5 7.34424 19.7948 0 
194 1 0.416887 79.5 7.80037 19.7981 0 
218 1 0.418811 79.5 8.24493 19.7995 0 
32 1 0.375477 79.5 8.67088 19.8172 0 
145 1 0.419666 79.5 9.07898 19.8051 0 
8 1 0.378024 79.5 9.47697 19.8175 0 
296 1 0.418792 79.5 9.87256 19.8097 0 
253 1 0.415824 79.5 10.2914 19.81 0 
133 1 0.418748 79.5 10.7075 19.8082 0 
285 1 0.37676 79.5 11.1047 19.8182 0 
89 1 0.376485 79.5 11.5052 19.8193 0 
220 1 0.375738 79.5 11.9334 19.8178 0 
114 1 0.376368 79.5 12.3837 19.8162 0 
45 1 0.41618 79.5 12.8623 19.7969 0 
171 1 0.417726 79.5 13.3495 19.7915 0 
3 1 0.376593 79.5 13.8354 19.7809 0 
30 1 0.376677 79.5 14.3202 19.7577 0 
267 1 0.418107 79.5 14.8483 19.7215 0 
83 1 0.419111 79.5 15.4628 19.6744 0 
