# LAMMPS data file for rigid bodies

303 atoms

1 atom types

0.0 	 20.0 	 xlo xhi 
0.0 	 20.0 	 ylo yhi 
-1.0 	 1.0 	 zlo zhi 

Atoms

248 1 0.417624 79.5 9.09927 13.6251 0 
142 1 0.376502 79.5 10.0262 13.5558 0 
138 1 0.417163 79.5 10.587 13.7506 0 
82 1 0.37548 79.5 11.5713 13.7434 0 
156 1 0.41736 79.5 7.77456 14.1687 0 
141 1 0.417537 79.5 8.29471 13.7947 0 
154 1 0.377463 79.5 8.77088 14.1085 0 
290 1 0.417552 79.5 9.60687 13.9367 0 
206 1 0.377502 79.5 10.1396 14.1599 0 
159 1 0.418141 79.5 11.0853 14.0574 0 
5 1 0.417956 79.5 12.1385 14.07 0 
116 1 0.418074 79.5 7.29835 14.5499 0 
172 1 0.377906 79.5 8.31025 14.4292 0 
235 1 0.417949 79.5 8.82085 14.6465 0 
137 1 0.377547 79.5 9.24133 14.3312 0 
215 1 0.417318 79.5 9.72989 14.5036 0 
246 1 0.419558 79.5 10.6199 14.3798 0 
131 1 0.37743 79.5 11.109 14.6203 0 
77 1 0.416408 79.5 11.5977 14.3453 0 
195 1 0.376076 79.5 12.6051 14.4468 0 
139 1 0.377813 79.5 13.2454 14.3882 0 
211 1 0.376915 79.5 6.63128 14.7406 0 
187 1 0.376835 79.5 7.07172 15.0543 0 
271 1 0.419038 79.5 7.86633 14.7751 0 
300 1 0.417817 79.5 8.39411 14.9662 0 
37 1 0.376521 79.5 9.31507 14.841 0 
225 1 0.418808 79.5 9.78956 15.0226 0 
55 1 0.377258 79.5 10.1999 14.716 0 
149 1 0.420339 79.5 10.6577 14.9195 0 
104 1 0.417492 79.5 11.5924 14.889 0 
28 1 0.376324 79.5 12.0761 14.6723 0 
60 1 0.378985 79.5 12.5074 14.9894 0 
277 1 0.378085 79.5 13.0167 14.876 0 
34 1 0.376733 79.5 6.19638 15.1754 0 
76 1 0.376361 79.5 6.68798 15.4148 0 
78 1 0.376793 79.5 7.55059 15.196 0 
251 1 0.418401 79.5 8.02752 15.3371 0 
231 1 0.418206 79.5 8.51637 15.4832 0 
227 1 0.419731 79.5 8.90353 15.1582 0 
74 1 0.418792 79.5 9.37585 15.3349 0 
250 1 0.419005 79.5 9.84018 15.5179 0 
96 1 0.375974 79.5 10.248 15.2175 0 
270 1 0.377661 79.5 10.6851 15.4162 0 
109 1 0.416555 79.5 11.1235 15.1279 0 
86 1 0.418347 79.5 11.5874 15.4045 0 
81 1 0.377631 79.5 12.0448 15.2015 0 
6 1 0.41784 79.5 12.5077 15.4945 0 
95 1 0.378511 79.5 13.0306 15.371 0 
19 1 0.377048 79.5 13.5601 15.1143 0 
205 1 0.417837 79.5 14.0781 15.4825 0 
292 1 0.419322 79.5 5.72864 15.5838 0 
61 1 0.416969 79.5 6.29032 15.7871 0 
279 1 0.419009 79.5 6.79944 15.9599 0 
56 1 0.417661 79.5 7.18962 15.5779 0 
249 1 0.37714 79.5 7.67661 15.706 0 
103 1 0.376732 79.5 8.14123 15.8272 0 
150 1 0.42017 79.5 8.60724 15.961 0 
14 1 0.378044 79.5 8.98982 15.6455 0 
226 1 0.418002 79.5 9.44686 15.82 0 
91 1 0.375891 79.5 9.88031 15.9862 0 
144 1 0.417225 79.5 10.2841 15.6959 0 
275 1 0.375236 79.5 10.707 15.8772 0 
20 1 0.418644 79.5 11.1281 15.615 0 
239 1 0.376202 79.5 11.5791 15.8759 0 
295 1 0.376364 79.5 12.0241 15.6876 0 
110 1 0.376982 79.5 12.4484 15.9707 0 
112 1 0.37724 79.5 12.9433 15.8361 0 
98 1 0.376685 79.5 13.4829 15.674 0 
264 1 0.375728 79.5 5.38371 16.0745 0 
100 1 0.41738 79.5 5.94551 16.2065 0 
147 1 0.378206 79.5 6.47092 16.3499 0 
180 1 0.4178 79.5 7.29848 16.0805 0 
62 1 0.419478 79.5 7.77884 16.1812 0 
36 1 0.41802 79.5 8.24401 16.2938 0 
113 1 0.376209 79.5 8.68791 16.4188 0 
128 1 0.417636 79.5 9.06135 16.1073 0 
93 1 0.375858 79.5 9.5 16.2745 0 
53 1 0.418687 79.5 9.91939 16.4279 0 
234 1 0.376567 79.5 10.2989 16.1457 0 
18 1 0.417229 79.5 10.7142 16.3238 0 
72 1 0.418442 79.5 11.1396 16.0764 0 
2 1 0.418632 79.5 11.5647 16.3321 0 
193 1 0.377638 79.5 11.9965 16.1426 0 
303 1 0.377701 79.5 12.3867 16.4131 0 
203 1 0.418748 79.5 12.8628 16.3001 0 
57 1 0.417312 79.5 13.376 16.1813 0 
236 1 0.417091 79.5 13.9356 16.0562 0 
256 1 0.417029 79.5 14.5746 16.0234 0 
70 1 0.418537 79.5 4.95685 16.5072 0 
257 1 0.417584 79.5 5.57164 16.6319 0 
54 1 0.417762 79.5 6.11886 16.7322 0 
223 1 0.377582 79.5 6.6193 16.826 0 
111 1 0.377387 79.5 6.95754 16.458 0 
273 1 0.375407 79.5 7.42866 16.5419 0 
13 1 0.376492 79.5 7.88852 16.635 0 
44 1 0.376441 79.5 8.33178 16.7307 0 
48 1 0.417895 79.5 8.77256 16.853 0 
247 1 0.417974 79.5 9.12484 16.5576 0 
259 1 0.416952 79.5 9.54002 16.7241 0 
73 1 0.418056 79.5 9.95424 16.8777 0 
207 1 0.375123 79.5 10.3366 16.5724 0 
214 1 0.375802 79.5 10.7451 16.7643 0 
153 1 0.418903 79.5 11.1363 16.5319 0 
278 1 0.377425 79.5 11.5326 16.7842 0 
289 1 0.377045 79.5 11.948 16.5922 0 
237 1 0.377021 79.5 12.3281 16.8335 0 
35 1 0.375085 79.5 12.7784 16.7469 0 
126 1 0.377564 79.5 13.244 16.6719 0 
16 1 0.418857 79.5 13.7532 16.5802 0 
105 1 0.378261 79.5 14.2949 16.5204 0 
66 1 0.417743 79.5 15.035 16.6124 0 
7 1 0.376836 79.5 4.58977 17.0388 0 
1 1 0.416656 79.5 5.20889 17.0606 0 
88 1 0.377633 79.5 5.77896 17.134 0 
136 1 0.377551 79.5 6.28776 17.2037 0 
124 1 0.377489 79.5 6.75519 17.2776 0 
85 1 0.378114 79.5 7.07816 16.9055 0 
52 1 0.417492 79.5 7.53547 16.9804 0 
196 1 0.417674 79.5 7.98941 17.0719 0 
281 1 0.419313 79.5 8.42854 17.1599 0 
168 1 0.377281 79.5 8.85879 17.2772 0 
67 1 0.375259 79.5 9.19655 17.0012 0 
134 1 0.377548 79.5 9.60381 17.1618 0 
39 1 0.417739 79.5 9.99689 17.3203 0 
204 1 0.417908 79.5 10.3713 16.9877 0 
299 1 0.376562 79.5 10.7642 17.182 0 
46 1 0.377328 79.5 11.14 16.954 0 
119 1 0.418318 79.5 11.5458 17.2312 0 
269 1 0.377027 79.5 11.9043 17.0225 0 
23 1 0.377532 79.5 12.2423 17.2438 0 
297 1 0.418019 79.5 12.6714 17.1766 0 
182 1 0.376421 79.5 13.127 17.1218 0 
291 1 0.418671 79.5 13.5905 17.0784 0 
43 1 0.416658 79.5 14.0907 17.0289 0 
244 1 0.377185 79.5 14.6015 16.9645 0 
254 1 0.418928 79.5 4.85317 17.5422 0 
265 1 0.4186 79.5 5.43421 17.5541 0 
219 1 0.416465 79.5 5.96075 17.6036 0 
157 1 0.417922 79.5 6.44574 17.6653 0 
232 1 0.41966 79.5 6.91715 17.7372 0 
25 1 0.418251 79.5 7.21239 17.3571 0 
162 1 0.417925 79.5 7.66596 17.4342 0 
64 1 0.37804 79.5 8.10045 17.5052 0 
197 1 0.418138 79.5 8.52762 17.5825 0 
99 1 0.418162 79.5 8.95897 17.6943 0 
125 1 0.417497 79.5 9.27001 17.4184 0 
40 1 0.417655 79.5 9.63539 17.6164 0 
280 1 0.376116 79.5 10.0141 17.7306 0 
233 1 0.376541 79.5 10.4042 17.3855 0 
198 1 0.418579 79.5 10.7873 17.6138 0 
10 1 0.377297 79.5 11.1404 17.3419 0 
151 1 0.377236 79.5 11.1784 17.7166 0 
65 1 0.375901 79.5 11.5566 17.6425 0 
242 1 0.419369 79.5 11.9656 17.5472 0 
31 1 0.376295 79.5 12.4596 17.5945 0 
240 1 0.417923 79.5 12.9408 17.5509 0 
208 1 0.376279 79.5 13.4234 17.5332 0 
167 1 0.376423 79.5 13.8969 17.5096 0 
158 1 0.378408 79.5 14.4047 17.4584 0 
130 1 0.41741 79.5 14.9977 17.3384 0 
90 1 0.418215 79.5 4.41766 17.9349 0 
263 1 0.375892 79.5 5.12727 17.9954 0 
183 1 0.418934 79.5 5.66859 18.0297 0 
243 1 0.376024 79.5 6.16012 18.073 0 
217 1 0.420187 79.5 6.63203 18.1238 0 
117 1 0.376414 79.5 7.086 18.1814 0 
175 1 0.375285 79.5 7.35269 17.8067 0 
152 1 0.419353 79.5 7.77837 17.8698 0 
170 1 0.419066 79.5 8.19828 17.9268 0 
224 1 0.417151 79.5 8.61324 18.002 0 
143 1 0.378123 79.5 9.00085 18.0883 0 
202 1 0.416907 79.5 9.3724 17.9519 0 
228 1 0.377094 79.5 9.7631 18.0486 0 
108 1 0.37715 79.5 10.152 18.1057 0 
106 1 0.418321 79.5 10.406 17.7801 0 
287 1 0.378509 79.5 10.5576 18.1421 0 
178 1 0.415965 79.5 10.9399 18.0396 0 
102 1 0.419434 79.5 11.3911 18.053 0 
164 1 0.419166 79.5 11.8239 17.9782 0 
181 1 0.377496 79.5 12.2465 17.9421 0 
274 1 0.37582 79.5 12.707 17.9331 0 
80 1 0.376209 79.5 13.1932 17.9141 0 
185 1 0.37559 79.5 13.7004 17.9403 0 
115 1 0.377962 79.5 14.1954 17.9129 0 
241 1 0.375449 79.5 14.7197 17.8556 0 
179 1 0.419049 79.5 15.3658 17.7847 0 
84 1 0.417941 79.5 4.13229 18.5203 0 
258 1 0.419432 79.5 4.78357 18.4098 0 
4 1 0.418796 79.5 5.36563 18.4454 0 
298 1 0.374614 79.5 5.88857 18.4754 0 
186 1 0.417704 79.5 6.3593 18.5187 0 
42 1 0.418538 79.5 6.83002 18.5667 0 
294 1 0.420196 79.5 7.5141 18.2391 0 
210 1 0.417016 79.5 7.26902 18.6272 0 
189 1 0.374207 79.5 7.9423 18.2969 0 
188 1 0.417316 79.5 7.70781 18.6596 0 
177 1 0.417786 79.5 8.35001 18.3511 0 
222 1 0.376423 79.5 8.76531 18.3982 0 
132 1 0.378247 79.5 9.19182 18.4093 0 
51 1 0.378133 79.5 9.56674 18.3818 0 
261 1 0.377169 79.5 9.94782 18.4277 0 
68 1 0.37735 79.5 10.3397 18.4482 0 
22 1 0.376996 79.5 10.7975 18.431 0 
155 1 0.37768 79.5 11.1865 18.4025 0 
229 1 0.41843 79.5 11.6302 18.3967 0 
190 1 0.417687 79.5 12.0552 18.3534 0 
268 1 0.418081 79.5 12.4908 18.3152 0 
255 1 0.419607 79.5 12.9502 18.2992 0 
79 1 0.376387 79.5 13.4162 18.2745 0 
24 1 0.416559 79.5 13.6292 18.6431 0 
191 1 0.419678 79.5 13.9978 18.3596 0 
107 1 0.375813 79.5 14.5012 18.3319 0 
286 1 0.417076 79.5 15.0413 18.2828 0 
173 1 0.377039 79.5 15.6923 18.2957 0 
169 1 0.378453 79.5 4.54361 18.9154 0 
120 1 0.378184 79.5 5.09114 18.8668 0 
212 1 0.41762 79.5 5.62126 18.8866 0 
260 1 0.417822 79.5 6.11546 18.9249 0 
148 1 0.418606 79.5 6.59746 18.9673 0 
63 1 0.377654 79.5 7.0448 19.0067 0 
245 1 0.376779 79.5 7.47623 19.0335 0 
200 1 0.417021 79.5 7.90383 19.0654 0 
201 1 0.37868 79.5 8.12154 18.7059 0 
97 1 0.377275 79.5 8.31908 19.095 0 
213 1 0.418946 79.5 8.52975 18.748 0 
75 1 0.376447 79.5 8.73835 19.1045 0 
59 1 0.419658 79.5 8.95176 18.7495 0 
94 1 0.419162 79.5 9.37037 18.764 0 
140 1 0.378892 79.5 9.76458 18.7573 0 
69 1 0.376926 79.5 10.1566 18.7768 0 
121 1 0.418093 79.5 9.94289 19.1109 0 
92 1 0.417624 79.5 10.5799 18.7612 0 
262 1 0.418034 79.5 11.0008 18.7751 0 
58 1 0.415805 79.5 11.4148 18.754 0 
101 1 0.376457 79.5 11.8451 18.7541 0 
127 1 0.417806 79.5 12.2716 18.7296 0 
41 1 0.375472 79.5 12.0452 19.1016 0 
9 1 0.378113 79.5 12.7071 18.694 0 
302 1 0.377055 79.5 12.4822 19.0849 0 
272 1 0.378957 79.5 13.16 18.6742 0 
221 1 0.419252 79.5 12.9263 19.0614 0 
29 1 0.417393 79.5 13.3922 19.0545 0 
266 1 0.376034 79.5 13.875 18.9943 0 
160 1 0.418475 79.5 14.2984 18.8032 0 
30 1 0.376677 79.5 14.8019 18.7715 0 
146 1 0.418691 79.5 15.363 18.7533 0 
50 1 0.378881 79.5 4.09403 19.2711 0 
71 1 0.377916 79.5 4.84703 19.3111 0 
199 1 0.417759 79.5 5.35544 19.3126 0 
166 1 0.418977 79.5 5.86756 19.3425 0 
122 1 0.41785 79.5 6.34923 19.3671 0 
135 1 0.377153 79.5 6.81163 19.3832 0 
194 1 0.416887 79.5 7.25286 19.4044 0 
129 1 0.417621 79.5 7.68716 19.4415 0 
163 1 0.376966 79.5 8.1087 19.4439 0 
184 1 0.417741 79.5 8.53533 19.4457 0 
12 1 0.37772 79.5 8.93515 19.4617 0 
118 1 0.41851 79.5 9.14387 19.1209 0 
87 1 0.377593 79.5 9.33874 19.4656 0 
27 1 0.375782 79.5 9.54468 19.1202 0 
296 1 0.418792 79.5 9.73189 19.4689 0 
293 1 0.417075 79.5 10.1566 19.4658 0 
276 1 0.417911 79.5 10.3662 19.1147 0 
216 1 0.376432 79.5 10.5727 19.4689 0 
192 1 0.418338 79.5 10.7817 19.129 0 
283 1 0.377483 79.5 10.9698 19.4757 0 
230 1 0.376846 79.5 11.1943 19.1359 0 
89 1 0.376485 79.5 11.3928 19.4655 0 
209 1 0.419672 79.5 11.6174 19.1165 0 
26 1 0.417817 79.5 11.8224 19.4796 0 
49 1 0.419815 79.5 12.2611 19.4549 0 
165 1 0.417616 79.5 12.7092 19.4548 0 
17 1 0.37517 79.5 13.1598 19.4407 0 
282 1 0.416306 79.5 13.6645 19.4144 0 
171 1 0.417726 79.5 14.1595 19.3417 0 
3 1 0.376593 79.5 14.627 19.2423 0 
176 1 0.376448 79.5 15.1299 19.2205 0 
174 1 0.419338 79.5 15.8237 19.1394 0 
123 1 0.416947 79.5 4.48989 19.6829 0 
33 1 0.378072 79.5 5.08679 19.7437 0 
21 1 0.420824 79.5 5.60924 19.7554 0 
252 1 0.378093 79.5 6.10517 19.7733 0 
161 1 0.416955 79.5 6.57492 19.7791 0 
301 1 0.41979 79.5 7.03697 19.7907 0 
32 1 0.375477 79.5 7.47892 19.8126 0 
15 1 0.377305 79.5 7.89932 19.8133 0 
218 1 0.418811 79.5 8.31564 19.7999 0 
38 1 0.377736 79.5 8.73329 19.8163 0 
145 1 0.419666 79.5 9.13632 19.8046 0 
8 1 0.378024 79.5 9.53657 19.8205 0 
133 1 0.418748 79.5 9.94801 19.8176 0 
253 1 0.415824 79.5 10.3784 19.8113 0 
284 1 0.376238 79.5 10.7741 19.8179 0 
47 1 0.418289 79.5 11.1871 19.8045 0 
285 1 0.37676 79.5 11.6014 19.8175 0 
11 1 0.377588 79.5 12.0366 19.8176 0 
220 1 0.375738 79.5 12.4727 19.8155 0 
114 1 0.376368 79.5 12.9299 19.8128 0 
45 1 0.41618 79.5 13.4078 19.7926 0 
288 1 0.377512 79.5 13.9176 19.7831 0 
83 1 0.419111 79.5 14.4216 19.7436 0 
267 1 0.418107 79.5 14.935 19.7005 0 
238 1 0.417818 79.5 15.5079 19.6493 0 
