# LAMMPS data file for rigid bodies

303 atoms

1 atom types

0.0 	 20.0 	 xlo xhi 
0.0 	 20.0 	 ylo yhi 
-1.0 	 1.0 	 zlo zhi 

Atoms

141 1 0.417537 79.5 8.31652 13.5057 0 
156 1 0.41736 79.5 8.87624 13.7257 0 
154 1 0.377463 79.5 9.44919 13.4561 0 
142 1 0.376502 79.5 10.2301 13.6882 0 
159 1 0.418141 79.5 10.8144 13.5046 0 
116 1 0.418074 79.5 8.08467 14.0468 0 
137 1 0.377547 79.5 9.22425 14.1349 0 
248 1 0.417624 79.5 9.72283 13.9397 0 
138 1 0.417163 79.5 10.6569 14.109 0 
28 1 0.376324 79.5 11.1944 13.9669 0 
82 1 0.37548 79.5 11.7432 13.7879 0 
195 1 0.376076 79.5 12.1806 14.2005 0 
211 1 0.376915 79.5 6.93338 14.3167 0 
187 1 0.376835 79.5 7.57308 14.3689 0 
271 1 0.419038 79.5 8.1223 14.5955 0 
172 1 0.377906 79.5 8.65472 14.2772 0 
235 1 0.417949 79.5 9.1262 14.6277 0 
206 1 0.377502 79.5 9.63567 14.4859 0 
290 1 0.417552 79.5 10.1431 14.29 0 
246 1 0.419558 79.5 10.5455 14.6643 0 
77 1 0.416408 79.5 11.0619 14.5178 0 
5 1 0.417956 79.5 11.594 14.3621 0 
60 1 0.378985 79.5 12.499 14.6434 0 
139 1 0.377813 79.5 13.0305 14.4859 0 
279 1 0.419009 79.5 6.60641 14.9529 0 
34 1 0.376733 79.5 7.17571 14.8008 0 
76 1 0.376361 79.5 7.66332 14.9233 0 
300 1 0.417817 79.5 8.62021 14.8064 0 
37 1 0.376521 79.5 9.55517 14.963 0 
215 1 0.417318 79.5 10.0464 14.8133 0 
225 1 0.418808 79.5 10.9225 15.0356 0 
270 1 0.377661 79.5 11.4275 14.9029 0 
104 1 0.417492 79.5 11.9494 14.7622 0 
277 1 0.378085 79.5 12.8635 15.0644 0 
19 1 0.377048 79.5 13.4168 14.9552 0 
292 1 0.419322 79.5 6.10685 15.3321 0 
78 1 0.376793 79.5 7.12269 15.2953 0 
56 1 0.417661 79.5 7.62135 15.4339 0 
150 1 0.42017 79.5 8.12781 15.1282 0 
231 1 0.418206 79.5 8.59638 15.3114 0 
227 1 0.419731 79.5 9.0766 15.1272 0 
226 1 0.418002 79.5 9.49075 15.4353 0 
74 1 0.418792 79.5 9.96178 15.2968 0 
55 1 0.377258 79.5 10.444 15.1638 0 
96 1 0.375974 79.5 10.794 15.5136 0 
109 1 0.416555 79.5 11.2827 15.3907 0 
131 1 0.37743 79.5 11.7819 15.2579 0 
57 1 0.417312 79.5 12.3155 15.1507 0 
95 1 0.378511 79.5 13.2064 15.4904 0 
236 1 0.417091 79.5 13.811 15.3884 0 
61 1 0.416969 79.5 5.67468 15.765 0 
147 1 0.378206 79.5 6.2366 15.9473 0 
251 1 0.418401 79.5 6.65521 15.5648 0 
249 1 0.37714 79.5 7.17311 15.779 0 
103 1 0.376732 79.5 7.63379 15.9233 0 
91 1 0.375891 79.5 8.08728 15.6065 0 
128 1 0.417636 79.5 8.53688 15.7787 0 
247 1 0.417974 79.5 9.01772 15.6153 0 
93 1 0.375858 79.5 9.41864 15.8816 0 
14 1 0.378044 79.5 9.86742 15.7599 0 
250 1 0.419005 79.5 10.3329 15.6275 0 
144 1 0.417225 79.5 10.6734 15.985 0 
149 1 0.420339 79.5 11.1287 15.8615 0 
239 1 0.376202 79.5 11.6404 15.7093 0 
86 1 0.418347 79.5 12.1333 15.6309 0 
205 1 0.417837 79.5 12.6643 15.5582 0 
81 1 0.377631 79.5 12.9664 15.9585 0 
112 1 0.37724 79.5 13.5044 15.9102 0 
16 1 0.418857 79.5 14.0868 15.904 0 
256 1 0.417029 79.5 14.6978 15.9815 0 
180 1 0.4178 79.5 5.22358 16.194 0 
264 1 0.375728 79.5 5.84988 16.3257 0 
62 1 0.419478 79.5 6.74509 16.1028 0 
13 1 0.376492 79.5 7.2208 16.2465 0 
273 1 0.375407 79.5 7.65939 16.3788 0 
36 1 0.41802 79.5 8.08581 16.0669 0 
113 1 0.376209 79.5 8.52442 16.2168 0 
48 1 0.417895 79.5 8.95715 16.0808 0 
44 1 0.376441 79.5 9.34568 16.2939 0 
259 1 0.416952 79.5 9.77494 16.1995 0 
53 1 0.418687 79.5 10.2264 16.09 0 
275 1 0.375236 79.5 10.9711 16.3277 0 
20 1 0.418644 79.5 11.4957 16.138 0 
303 1 0.377701 79.5 11.9685 16.0735 0 
193 1 0.377638 79.5 12.2572 16.4307 0 
295 1 0.376364 79.5 12.4577 16.0185 0 
110 1 0.376982 79.5 12.7516 16.3935 0 
6 1 0.41784 79.5 13.2487 16.3703 0 
98 1 0.376685 79.5 13.7722 16.3592 0 
105 1 0.378261 79.5 14.3221 16.444 0 
70 1 0.418537 79.5 4.79153 16.7414 0 
257 1 0.417584 79.5 5.44277 16.7379 0 
100 1 0.41738 79.5 5.99993 16.8351 0 
111 1 0.377387 79.5 6.36959 16.4698 0 
85 1 0.378114 79.5 6.84443 16.6017 0 
52 1 0.417492 79.5 7.30665 16.7111 0 
124 1 0.377489 79.5 7.75954 16.8336 0 
64 1 0.37804 79.5 8.07012 16.5122 0 
196 1 0.417674 79.5 8.48843 16.6289 0 
281 1 0.419313 79.5 8.91409 16.5535 0 
202 1 0.416907 79.5 9.31498 16.7018 0 
207 1 0.375123 79.5 9.7164 16.6298 0 
73 1 0.418056 79.5 10.1316 16.5342 0 
234 1 0.376567 79.5 10.5594 16.4452 0 
18 1 0.417229 79.5 10.8396 16.7998 0 
72 1 0.418442 79.5 11.3295 16.5502 0 
289 1 0.377045 79.5 11.801 16.4915 0 
278 1 0.377425 79.5 12.0742 16.8458 0 
2 1 0.418632 79.5 12.537 16.8025 0 
35 1 0.375085 79.5 13.0228 16.818 0 
203 1 0.418748 79.5 13.5065 16.8141 0 
126 1 0.377564 79.5 14.0017 16.8171 0 
66 1 0.417743 79.5 14.8578 16.6325 0 
7 1 0.376836 79.5 5.1035 17.2158 0 
1 1 0.416656 79.5 5.63464 17.2589 0 
54 1 0.417762 79.5 6.16312 17.3254 0 
223 1 0.377582 79.5 6.511 16.9554 0 
88 1 0.377633 79.5 6.97521 17.0674 0 
25 1 0.418251 79.5 7.44107 17.1677 0 
162 1 0.417925 79.5 7.91023 17.2747 0 
197 1 0.418138 79.5 8.20349 16.9546 0 
67 1 0.375259 79.5 8.6854 17.0017 0 
168 1 0.377281 79.5 9.08543 17.0355 0 
143 1 0.378123 79.5 9.54124 17.0437 0 
204 1 0.417908 79.5 9.97036 16.9755 0 
119 1 0.418318 79.5 10.4066 16.8898 0 
39 1 0.417739 79.5 10.5864 17.2757 0 
153 1 0.418903 79.5 11.0034 17.2786 0 
299 1 0.376562 79.5 11.2312 16.9462 0 
269 1 0.377027 79.5 11.4594 17.2851 0 
214 1 0.375802 79.5 11.6456 16.8916 0 
10 1 0.377297 79.5 11.8788 17.2457 0 
237 1 0.377021 79.5 12.3147 17.2099 0 
23 1 0.377532 79.5 12.7774 17.1879 0 
291 1 0.418671 79.5 13.3005 17.2676 0 
167 1 0.376423 79.5 13.7946 17.2406 0 
43 1 0.416658 79.5 14.4144 17.0981 0 
244 1 0.377185 79.5 14.9986 17.1789 0 
254 1 0.418928 79.5 4.67094 17.5975 0 
265 1 0.4186 79.5 5.25763 17.7329 0 
183 1 0.418934 79.5 5.7982 17.7471 0 
136 1 0.377551 79.5 6.66473 17.4083 0 
175 1 0.375285 79.5 7.13539 17.5008 0 
152 1 0.419353 79.5 7.61529 17.6022 0 
294 1 0.420196 79.5 8.11514 17.6757 0 
170 1 0.419066 79.5 8.40993 17.3466 0 
177 1 0.417786 79.5 8.61151 17.7418 0 
224 1 0.417151 79.5 8.86729 17.4009 0 
132 1 0.378247 79.5 9.09838 17.7547 0 
99 1 0.418162 79.5 9.31536 17.3993 0 
51 1 0.378133 79.5 9.55215 17.7394 0 
125 1 0.417497 79.5 9.76798 17.3878 0 
134 1 0.377548 79.5 10.181 17.3359 0 
228 1 0.377094 79.5 9.99083 17.7296 0 
40 1 0.417655 79.5 10.4005 17.6896 0 
46 1 0.377328 79.5 10.8093 17.6665 0 
242 1 0.419369 79.5 11.2402 17.65 0 
65 1 0.375901 79.5 11.6731 17.6342 0 
31 1 0.376295 79.5 12.0984 17.5955 0 
181 1 0.377496 79.5 12.535 17.5719 0 
185 1 0.37559 79.5 12.9707 17.5623 0 
240 1 0.417923 79.5 13.6119 17.6936 0 
297 1 0.418019 79.5 14.1236 17.5956 0 
158 1 0.378408 79.5 14.6484 17.5715 0 
182 1 0.376421 79.5 15.3972 17.5592 0 
90 1 0.418215 79.5 4.3176 18.0995 0 
263 1 0.375892 79.5 4.93296 18.1875 0 
243 1 0.376024 79.5 5.4675 18.2033 0 
217 1 0.420187 79.5 6.02954 18.1779 0 
219 1 0.416465 79.5 6.33655 17.7799 0 
232 1 0.41966 79.5 6.83316 17.8461 0 
186 1 0.417704 79.5 7.31033 17.925 0 
117 1 0.376414 79.5 7.78271 17.9952 0 
189 1 0.374207 79.5 8.19851 18.0674 0 
210 1 0.417016 79.5 8.58343 18.1547 0 
222 1 0.376423 79.5 8.97598 18.1112 0 
213 1 0.418946 79.5 9.37833 18.0972 0 
262 1 0.418034 79.5 9.80105 18.0836 0 
280 1 0.376116 79.5 10.2173 18.0746 0 
198 1 0.418579 79.5 10.6182 18.06 0 
106 1 0.418321 79.5 11.0366 18.0292 0 
233 1 0.376541 79.5 11.4664 18.0086 0 
164 1 0.419166 79.5 11.8948 17.9912 0 
255 1 0.419607 79.5 12.3324 17.9644 0 
208 1 0.376279 79.5 12.7709 17.9479 0 
274 1 0.37582 79.5 13.2126 17.8928 0 
115 1 0.377962 79.5 13.9072 18.0878 0 
130 1 0.41741 79.5 14.4045 18.0287 0 
286 1 0.417076 79.5 15.0007 17.9602 0 
179 1 0.419049 79.5 15.7263 18.0907 0 
84 1 0.417941 79.5 4.52993 18.6495 0 
260 1 0.417822 79.5 5.75385 18.5826 0 
157 1 0.417922 79.5 6.54067 18.223 0 
199 1 0.417759 79.5 6.26635 18.615 0 
200 1 0.417021 79.5 7.03228 18.2855 0 
148 1 0.418606 79.5 6.76477 18.6463 0 
42 1 0.418538 79.5 7.50222 18.3387 0 
188 1 0.417316 79.5 7.94775 18.3988 0 
201 1 0.37868 79.5 8.35993 18.4826 0 
108 1 0.37715 79.5 8.80723 18.4834 0 
140 1 0.378892 79.5 9.202 18.4553 0 
68 1 0.37735 79.5 9.61391 18.4462 0 
92 1 0.417624 79.5 10.037 18.434 0 
287 1 0.378509 79.5 10.4416 18.4319 0 
151 1 0.377236 79.5 10.8442 18.4078 0 
268 1 0.418081 79.5 11.2688 18.3835 0 
190 1 0.417687 79.5 11.6961 18.375 0 
155 1 0.37768 79.5 12.1301 18.3633 0 
29 1 0.417393 79.5 12.5644 18.3434 0 
80 1 0.376209 79.5 13.0217 18.2945 0 
272 1 0.378957 79.5 13.2656 18.6465 0 
79 1 0.376387 79.5 13.4723 18.2228 0 
24 1 0.416559 79.5 13.7375 18.5808 0 
241 1 0.375449 79.5 14.1918 18.4898 0 
191 1 0.419678 79.5 14.7147 18.4355 0 
173 1 0.377039 79.5 15.2797 18.4305 0 
4 1 0.418796 79.5 5.12837 18.6933 0 
298 1 0.374614 79.5 5.53783 18.9806 0 
120 1 0.378184 79.5 6.0222 19.0109 0 
166 1 0.418977 79.5 6.50762 19.033 0 
122 1 0.41785 79.5 6.9934 19.0421 0 
245 1 0.376779 79.5 7.24997 18.6879 0 
129 1 0.417621 79.5 7.46734 19.0715 0 
163 1 0.376966 79.5 7.70379 18.7346 0 
75 1 0.376447 79.5 7.90477 19.1078 0 
97 1 0.377275 79.5 8.13132 18.793 0 
261 1 0.377169 79.5 8.58226 18.7965 0 
69 1 0.376926 79.5 9.00765 18.8048 0 
94 1 0.419162 79.5 9.41502 18.7926 0 
121 1 0.418093 79.5 9.83219 18.7963 0 
276 1 0.417911 79.5 10.2479 18.8038 0 
178 1 0.415965 79.5 10.6614 18.7725 0 
102 1 0.419434 79.5 11.0768 18.7551 0 
22 1 0.376996 79.5 11.4986 18.7447 0 
192 1 0.418338 79.5 11.3009 19.1067 0 
229 1 0.41843 79.5 11.9287 18.7392 0 
58 1 0.415805 79.5 11.7174 19.1108 0 
9 1 0.378113 79.5 12.3538 18.7282 0 
101 1 0.376457 79.5 12.142 19.1028 0 
165 1 0.417616 79.5 12.5903 19.0803 0 
127 1 0.417806 79.5 12.8184 18.6973 0 
17 1 0.37517 79.5 13.0402 19.0621 0 
221 1 0.419252 79.5 13.5047 19.0169 0 
266 1 0.376034 79.5 13.9811 18.9728 0 
160 1 0.418475 79.5 14.4605 18.8992 0 
174 1 0.419338 79.5 15.0118 18.8726 0 
107 1 0.375813 79.5 15.7172 18.8045 0 
258 1 0.419432 79.5 4.67259 19.1805 0 
212 1 0.41762 79.5 5.1962 19.302 0 
33 1 0.378072 79.5 5.7512 19.3822 0 
135 1 0.377153 79.5 6.25616 19.4009 0 
252 1 0.378093 79.5 6.74907 19.414 0 
301 1 0.41979 79.5 7.22304 19.4293 0 
63 1 0.377654 79.5 7.68733 19.4496 0 
218 1 0.418811 79.5 8.11422 19.4681 0 
184 1 0.417741 79.5 8.36063 19.133 0 
15 1 0.377305 79.5 8.59428 19.4838 0 
59 1 0.419658 79.5 8.79156 19.1408 0 
118 1 0.41851 79.5 9.20834 19.1553 0 
12 1 0.37772 79.5 9.0088 19.501 0 
296 1 0.418792 79.5 9.62602 19.1565 0 
87 1 0.377593 79.5 9.41563 19.4921 0 
216 1 0.376432 79.5 10.0436 19.1457 0 
27 1 0.375782 79.5 9.85101 19.4782 0 
283 1 0.377483 79.5 10.4779 19.1276 0 
47 1 0.418289 79.5 10.2747 19.466 0 
230 1 0.376846 79.5 10.8719 19.1205 0 
89 1 0.376485 79.5 10.67 19.46 0 
209 1 0.419672 79.5 11.0838 19.4612 0 
41 1 0.375472 79.5 11.4961 19.4775 0 
302 1 0.377055 79.5 11.9068 19.4615 0 
49 1 0.419815 79.5 12.3621 19.4522 0 
288 1 0.377512 79.5 12.8108 19.4519 0 
45 1 0.41618 79.5 13.2643 19.426 0 
30 1 0.376677 79.5 13.7558 19.3875 0 
176 1 0.376448 79.5 14.2405 19.3516 0 
267 1 0.418107 79.5 14.753 19.3257 0 
146 1 0.418691 79.5 15.3749 19.2558 0 
169 1 0.378453 79.5 4.34229 19.6315 0 
71 1 0.377916 79.5 4.91584 19.7195 0 
50 1 0.378881 79.5 5.45953 19.7485 0 
123 1 0.416947 79.5 5.98886 19.7737 0 
21 1 0.420824 79.5 6.49859 19.783 0 
161 1 0.416955 79.5 6.98373 19.7939 0 
194 1 0.416887 79.5 7.46703 19.7966 0 
32 1 0.375477 79.5 7.91112 19.8166 0 
145 1 0.419666 79.5 8.36293 19.8035 0 
38 1 0.377736 79.5 8.80562 19.8194 0 
8 1 0.378024 79.5 9.2239 19.8205 0 
253 1 0.415824 79.5 9.63992 19.811 0 
133 1 0.418748 79.5 10.0563 19.8133 0 
284 1 0.376238 79.5 10.4614 19.8205 0 
293 1 0.417075 79.5 10.8571 19.8074 0 
11 1 0.377588 79.5 11.2766 19.8178 0 
285 1 0.37676 79.5 11.6867 19.8162 0 
26 1 0.417817 79.5 12.1211 19.7996 0 
220 1 0.375738 79.5 12.5792 19.8138 0 
114 1 0.376368 79.5 13.0262 19.8099 0 
171 1 0.417726 79.5 13.5168 19.7897 0 
282 1 0.416306 79.5 14.0154 19.7664 0 
3 1 0.376593 79.5 14.5152 19.7548 0 
83 1 0.419111 79.5 15.0904 19.7188 0 
238 1 0.417818 79.5 15.7913 19.6263 0 
