# LAMMPS data file for rigid bodies

303 atoms

1 atom types

0.0 	 20.0 	 xlo xhi 
0.0 	 20.0 	 ylo yhi 
-1.0 	 1.0 	 zlo zhi 

Atoms

154 1 0.377463 79.5 8.9111 13.6324 0 
248 1 0.417624 79.5 9.49967 13.7347 0 
142 1 0.376502 79.5 10.5008 13.4413 0 
159 1 0.418141 79.5 11.1365 13.6053 0 
116 1 0.418074 79.5 7.4452 14.0605 0 
141 1 0.417537 79.5 8.1439 13.9557 0 
156 1 0.41736 79.5 8.69879 14.1514 0 
290 1 0.417552 79.5 10.0803 13.8539 0 
138 1 0.417163 79.5 10.6619 14.0084 0 
28 1 0.376324 79.5 11.2274 14.1765 0 
82 1 0.37548 79.5 11.764 13.784 0 
187 1 0.376835 79.5 7.18435 14.6138 0 
271 1 0.419038 79.5 7.85226 14.4927 0 
300 1 0.417817 79.5 8.39716 14.6029 0 
137 1 0.377547 79.5 9.22244 14.2473 0 
235 1 0.417949 79.5 9.74359 14.3162 0 
215 1 0.417318 79.5 10.2691 14.4187 0 
246 1 0.419558 79.5 10.8088 14.5396 0 
5 1 0.417956 79.5 11.7786 14.3355 0 
139 1 0.377813 79.5 12.3311 14.4554 0 
211 1 0.376915 79.5 6.71634 14.9021 0 
249 1 0.37714 79.5 7.58223 14.9535 0 
74 1 0.418792 79.5 8.0909 15.0338 0 
37 1 0.376521 79.5 8.61343 15.1003 0 
172 1 0.377906 79.5 8.91355 14.6816 0 
227 1 0.419731 79.5 9.42717 14.7511 0 
206 1 0.377502 79.5 9.922 14.8356 0 
225 1 0.418808 79.5 10.4241 14.921 0 
270 1 0.377661 79.5 10.9279 15.0286 0 
77 1 0.416408 79.5 11.3374 14.7002 0 
104 1 0.417492 79.5 11.8826 14.8688 0 
60 1 0.378985 79.5 12.3887 15.0349 0 
95 1 0.378511 79.5 12.8419 14.688 0 
19 1 0.377048 79.5 13.355 14.9502 0 
292 1 0.419322 79.5 5.44748 15.4427 0 
34 1 0.376733 79.5 6.18272 15.1756 0 
76 1 0.376361 79.5 6.66907 15.4488 0 
78 1 0.376793 79.5 7.1917 15.253 0 
62 1 0.419478 79.5 7.73843 15.4447 0 
231 1 0.418206 79.5 8.30795 15.4923 0 
226 1 0.418002 79.5 9.10161 15.1553 0 
55 1 0.377258 79.5 9.59746 15.2277 0 
91 1 0.375891 79.5 10.0685 15.2875 0 
96 1 0.375974 79.5 10.5578 15.3753 0 
149 1 0.420339 79.5 11.0555 15.4763 0 
131 1 0.37743 79.5 11.4549 15.179 0 
81 1 0.377631 79.5 11.964 15.3658 0 
195 1 0.376076 79.5 12.8777 15.2631 0 
277 1 0.378085 79.5 13.355 15.5193 0 
236 1 0.417091 79.5 13.9221 15.2152 0 
279 1 0.419009 79.5 5.96037 15.7207 0 
251 1 0.418401 79.5 6.45338 15.9263 0 
56 1 0.417661 79.5 7.09577 15.745 0 
85 1 0.378114 79.5 7.54891 15.8852 0 
150 1 0.42017 79.5 8.03146 15.8944 0 
14 1 0.378044 79.5 8.80209 15.5629 0 
128 1 0.417636 79.5 8.5283 15.9518 0 
247 1 0.417974 79.5 9.27407 15.6133 0 
93 1 0.375858 79.5 9.74366 15.6615 0 
250 1 0.419005 79.5 10.2148 15.7238 0 
144 1 0.417225 79.5 10.6891 15.8195 0 
20 1 0.418644 79.5 11.1674 15.9395 0 
109 1 0.416555 79.5 11.5606 15.6429 0 
6 1 0.41784 79.5 12.4443 15.5632 0 
86 1 0.418347 79.5 12.0395 15.8641 0 
57 1 0.417312 79.5 12.9051 15.814 0 
16 1 0.418857 79.5 13.8433 15.7983 0 
66 1 0.417743 79.5 14.3933 15.9582 0 
61 1 0.416969 79.5 5.43117 16.1043 0 
180 1 0.4178 79.5 6.00421 16.2965 0 
103 1 0.376732 79.5 6.87046 16.1724 0 
13 1 0.376492 79.5 7.3103 16.2834 0 
36 1 0.41802 79.5 7.77349 16.3191 0 
52 1 0.417492 79.5 8.25097 16.3457 0 
44 1 0.376441 79.5 8.71537 16.3886 0 
113 1 0.376209 79.5 8.9841 16.0125 0 
64 1 0.37804 79.5 9.14819 16.4348 0 
48 1 0.417895 79.5 9.43688 16.0534 0 
259 1 0.416952 79.5 9.89901 16.0921 0 
234 1 0.376567 79.5 10.3567 16.1584 0 
275 1 0.375236 79.5 10.8069 16.2491 0 
72 1 0.418442 79.5 11.2651 16.3856 0 
239 1 0.376202 79.5 11.6368 16.1019 0 
110 1 0.376982 79.5 12.1044 16.3369 0 
295 1 0.376364 79.5 12.4927 16.093 0 
112 1 0.37724 79.5 12.9216 16.342 0 
205 1 0.417837 79.5 13.3591 16.078 0 
98 1 0.376685 79.5 13.8071 16.3401 0 
105 1 0.378261 79.5 14.8577 16.355 0 
264 1 0.375728 79.5 4.98668 16.5578 0 
100 1 0.41738 79.5 5.58482 16.6771 0 
223 1 0.377582 79.5 6.1318 16.8156 0 
147 1 0.378206 79.5 6.49718 16.4723 0 
273 1 0.375407 79.5 6.99017 16.6205 0 
124 1 0.377489 79.5 7.48736 16.7108 0 
196 1 0.417674 79.5 7.95865 16.7532 0 
162 1 0.417925 79.5 8.43803 16.7691 0 
197 1 0.418138 79.5 8.89597 16.81 0 
168 1 0.377281 79.5 9.32202 16.8548 0 
281 1 0.419313 79.5 9.58431 16.4887 0 
73 1 0.418056 79.5 10.0336 16.5204 0 
53 1 0.418687 79.5 10.4844 16.5716 0 
207 1 0.375123 79.5 10.9161 16.6568 0 
278 1 0.377425 79.5 11.3626 16.8096 0 
193 1 0.377638 79.5 11.7145 16.5209 0 
303 1 0.377701 79.5 12.1329 16.791 0 
203 1 0.418748 79.5 12.5326 16.5927 0 
35 1 0.375085 79.5 12.9045 16.8819 0 
256 1 0.417029 79.5 13.3271 16.6133 0 
126 1 0.377564 79.5 13.7842 16.8305 0 
244 1 0.377185 79.5 14.2777 16.5402 0 
257 1 0.417584 79.5 5.16306 17.1033 0 
54 1 0.417762 79.5 5.74641 17.1907 0 
88 1 0.377633 79.5 6.25735 17.2754 0 
111 1 0.377387 79.5 6.63302 16.9222 0 
232 1 0.41966 79.5 7.1606 17.0384 0 
25 1 0.418251 79.5 7.67052 17.1405 0 
152 1 0.419353 79.5 8.17262 17.1586 0 
170 1 0.419066 79.5 8.63437 17.1899 0 
143 1 0.378123 79.5 9.06881 17.2253 0 
202 1 0.416907 79.5 9.48115 17.2571 0 
67 1 0.375259 79.5 9.74143 16.8963 0 
204 1 0.417908 79.5 10.1711 16.9381 0 
119 1 0.418318 79.5 9.90984 17.2987 0 
18 1 0.417229 79.5 10.6041 16.9951 0 
153 1 0.418903 79.5 11.0419 17.057 0 
2 1 0.418632 79.5 11.5153 17.2791 0 
289 1 0.377045 79.5 11.7462 16.9322 0 
167 1 0.376423 79.5 12.0079 17.2363 0 
291 1 0.418671 79.5 12.4712 17.1064 0 
43 1 0.416658 79.5 13.3523 17.1213 0 
115 1 0.377962 79.5 13.7729 17.3151 0 
297 1 0.418019 79.5 14.2392 17.0739 0 
158 1 0.378408 79.5 14.7423 16.8905 0 
179 1 0.419049 79.5 15.2538 17.1824 0 
70 1 0.418537 79.5 4.70579 17.4778 0 
7 1 0.376836 79.5 5.39289 17.5865 0 
136 1 0.377551 79.5 5.93274 17.6592 0 
1 1 0.416656 79.5 6.40943 17.7406 0 
219 1 0.416465 79.5 6.73249 17.3639 0 
294 1 0.420196 79.5 7.18527 17.4831 0 
175 1 0.375285 79.5 7.58893 17.5633 0 
177 1 0.417786 79.5 7.99851 17.559 0 
210 1 0.417016 79.5 8.42528 17.5865 0 
125 1 0.417497 79.5 8.85225 17.5991 0 
228 1 0.377094 79.5 9.25784 17.6315 0 
39 1 0.417739 79.5 9.65709 17.6686 0 
198 1 0.418579 79.5 10.0792 17.702 0 
134 1 0.377548 79.5 10.3291 17.3419 0 
40 1 0.417655 79.5 10.5 17.7253 0 
214 1 0.375802 79.5 10.7362 17.3896 0 
299 1 0.376562 79.5 10.9245 17.7618 0 
269 1 0.377027 79.5 11.1347 17.4428 0 
151 1 0.377236 79.5 11.3756 17.7325 0 
233 1 0.376541 79.5 11.7659 17.634 0 
242 1 0.419369 79.5 12.1907 17.6016 0 
10 1 0.377297 79.5 12.6016 17.5287 0 
237 1 0.377021 79.5 12.9595 17.3387 0 
240 1 0.417923 79.5 13.3089 17.6668 0 
185 1 0.37559 79.5 13.7535 17.7559 0 
130 1 0.41741 79.5 14.2119 17.5945 0 
182 1 0.376421 79.5 14.6977 17.4243 0 
173 1 0.377039 79.5 15.6659 17.7117 0 
265 1 0.4186 79.5 4.39853 18.0625 0 
90 1 0.418215 79.5 5.02817 17.982 0 
254 1 0.418928 79.5 5.62092 18.04 0 
243 1 0.376024 79.5 6.12522 18.1216 0 
217 1 0.420187 79.5 6.60041 18.2026 0 
157 1 0.417922 79.5 6.88677 17.8343 0 
117 1 0.376414 79.5 7.34754 17.9211 0 
224 1 0.417151 79.5 7.78364 17.9575 0 
97 1 0.377275 79.5 8.2149 17.9666 0 
201 1 0.37868 79.5 8.62764 17.9797 0 
99 1 0.418162 79.5 9.04201 18.0013 0 
222 1 0.376423 79.5 9.44544 18.0257 0 
51 1 0.378133 79.5 9.84332 18.0482 0 
280 1 0.376116 79.5 10.2665 18.0694 0 
102 1 0.419434 79.5 10.7004 18.094 0 
178 1 0.415965 79.5 11.1596 18.0923 0 
190 1 0.417687 79.5 11.5992 18.0681 0 
65 1 0.375901 79.5 12.0094 17.9958 0 
31 1 0.376295 79.5 12.4589 17.9409 0 
23 1 0.377532 79.5 12.8902 17.8431 0 
208 1 0.376279 79.5 13.1539 18.1798 0 
274 1 0.37582 79.5 13.579 18.1459 0 
241 1 0.375449 79.5 14.0758 18.0863 0 
286 1 0.417076 79.5 14.5726 17.9718 0 
191 1 0.419678 79.5 15.0967 17.8044 0 
263 1 0.375892 79.5 4.78075 18.4993 0 
183 1 0.418934 79.5 5.32312 18.454 0 
4 1 0.418796 79.5 5.84978 18.5115 0 
260 1 0.417822 79.5 6.33268 18.5823 0 
186 1 0.417704 79.5 7.08511 18.2626 0 
200 1 0.417021 79.5 6.82629 18.6343 0 
189 1 0.374207 79.5 7.53951 18.3187 0 
188 1 0.417316 79.5 7.97889 18.3472 0 
213 1 0.418946 79.5 8.41246 18.3499 0 
261 1 0.377169 79.5 8.82059 18.3579 0 
132 1 0.378247 79.5 9.22553 18.3788 0 
287 1 0.378509 79.5 9.61058 18.3846 0 
106 1 0.418321 79.5 10.0331 18.3981 0 
92 1 0.417624 79.5 10.4554 18.4304 0 
229 1 0.41843 79.5 10.9324 18.4418 0 
22 1 0.376996 79.5 11.3828 18.4409 0 
46 1 0.377328 79.5 11.8272 18.3985 0 
164 1 0.419166 79.5 12.2739 18.325 0 
181 1 0.377496 79.5 12.7211 18.2678 0 
255 1 0.419607 79.5 12.9782 18.622 0 
29 1 0.417393 79.5 13.4307 18.5814 0 
24 1 0.416559 79.5 13.9007 18.5198 0 
79 1 0.376387 79.5 14.3963 18.455 0 
160 1 0.418475 79.5 14.9325 18.3719 0 
107 1 0.375813 79.5 15.468 18.2692 0 
84 1 0.417941 79.5 4.28577 18.7749 0 
298 1 0.374614 79.5 5.0946 18.8966 0 
212 1 0.41762 79.5 5.59937 18.9295 0 
120 1 0.378184 79.5 6.08964 18.9729 0 
148 1 0.418606 79.5 6.57372 19.0038 0 
245 1 0.376779 79.5 7.04911 19.0415 0 
42 1 0.418538 79.5 7.29388 18.6726 0 
122 1 0.41785 79.5 7.49921 19.0636 0 
163 1 0.376966 79.5 7.74255 18.6972 0 
129 1 0.417621 79.5 7.94578 19.0675 0 
75 1 0.376447 79.5 8.18061 18.7162 0 
184 1 0.417741 79.5 8.37166 19.0914 0 
108 1 0.37715 79.5 8.58926 18.7267 0 
118 1 0.41851 79.5 8.78761 19.103 0 
59 1 0.419658 79.5 8.99452 18.725 0 
94 1 0.419162 79.5 9.2046 19.0952 0 
140 1 0.378892 79.5 9.39796 18.7423 0 
69 1 0.376926 79.5 9.60169 19.1062 0 
262 1 0.418034 79.5 9.79356 18.7381 0 
121 1 0.418093 79.5 9.99798 19.0955 0 
68 1 0.37735 79.5 10.2222 18.7555 0 
276 1 0.417911 79.5 10.4195 19.0978 0 
192 1 0.418338 79.5 10.6836 18.7746 0 
58 1 0.415805 79.5 11.1643 18.7871 0 
155 1 0.37768 79.5 11.6285 18.7446 0 
101 1 0.376457 79.5 11.949 19.0844 0 
268 1 0.418081 79.5 12.0905 18.715 0 
80 1 0.376209 79.5 12.3772 19.0487 0 
272 1 0.378957 79.5 12.5387 18.6717 0 
9 1 0.378113 79.5 12.7997 19.028 0 
17 1 0.37517 79.5 13.2425 18.9993 0 
266 1 0.376034 79.5 13.7049 18.9635 0 
221 1 0.419252 79.5 14.1901 18.9146 0 
174 1 0.419338 79.5 14.7153 18.8528 0 
176 1 0.376448 79.5 15.2903 18.8116 0 
146 1 0.418691 79.5 15.8803 18.6967 0 
169 1 0.378453 79.5 4.09382 19.3792 0 
258 1 0.419432 79.5 4.71582 19.2163 0 
71 1 0.377916 79.5 5.3171 19.3281 0 
135 1 0.377153 79.5 5.83781 19.3546 0 
166 1 0.418977 79.5 6.32745 19.39 0 
199 1 0.417759 79.5 6.81065 19.4081 0 
63 1 0.377654 79.5 7.27218 19.4217 0 
194 1 0.416887 79.5 7.73305 19.4425 0 
218 1 0.418811 79.5 8.17189 19.4641 0 
15 1 0.377305 79.5 8.59317 19.4695 0 
12 1 0.37772 79.5 8.99033 19.4553 0 
253 1 0.415824 79.5 9.40725 19.4576 0 
27 1 0.375782 79.5 9.79898 19.4561 0 
296 1 0.418792 79.5 10.1962 19.4547 0 
293 1 0.417075 79.5 10.6115 19.4645 0 
216 1 0.376432 79.5 10.8303 19.1363 0 
284 1 0.376238 79.5 11.003 19.4967 0 
230 1 0.376846 79.5 11.1998 19.1762 0 
283 1 0.377483 79.5 11.3931 19.4982 0 
41 1 0.375472 79.5 11.5664 19.1138 0 
209 1 0.419672 79.5 11.7899 19.4638 0 
127 1 0.417806 79.5 12.2078 19.4272 0 
302 1 0.377055 79.5 12.6293 19.4127 0 
49 1 0.419815 79.5 13.0562 19.407 0 
165 1 0.417616 79.5 13.5145 19.3764 0 
30 1 0.376677 79.5 13.9847 19.3514 0 
282 1 0.416306 79.5 14.4807 19.3219 0 
171 1 0.417726 79.5 15.0399 19.2678 0 
238 1 0.417818 79.5 15.7325 19.2984 0 
50 1 0.378881 79.5 4.53245 19.707 0 
33 1 0.378072 79.5 5.04791 19.719 0 
123 1 0.416947 79.5 5.56917 19.7487 0 
21 1 0.420824 79.5 6.07902 19.7754 0 
252 1 0.378093 79.5 6.573 19.7932 0 
161 1 0.416955 79.5 7.04315 19.7932 0 
301 1 0.41979 79.5 7.50544 19.795 0 
32 1 0.375477 79.5 7.95704 19.8162 0 
38 1 0.377736 79.5 8.38339 19.8165 0 
87 1 0.377593 79.5 8.78276 19.8158 0 
145 1 0.419666 79.5 9.1812 19.8042 0 
8 1 0.378024 79.5 9.581 19.8192 0 
47 1 0.418289 79.5 9.97747 19.808 0 
133 1 0.418748 79.5 10.3955 19.8148 0 
285 1 0.37676 79.5 10.7932 19.821 0 
89 1 0.376485 79.5 11.1875 19.8231 0 
11 1 0.377588 79.5 11.5914 19.8205 0 
220 1 0.375738 79.5 12.0011 19.8163 0 
26 1 0.417817 79.5 12.4279 19.7955 0 
114 1 0.376368 79.5 12.856 19.8028 0 
288 1 0.377512 79.5 13.2933 19.7937 0 
45 1 0.41618 79.5 13.7636 19.7729 0 
3 1 0.376593 79.5 14.2435 19.756 0 
83 1 0.419111 79.5 14.7681 19.7329 0 
267 1 0.418107 79.5 15.3451 19.7012 0 
