# LAMMPS data file for rigid bodies

303 atoms

1 atom types

0.0 	 20.0 	 xlo xhi 
0.0 	 20.0 	 ylo yhi 
-1.0 	 1.0 	 zlo zhi 

Atoms

141 1 0.417537 79.5 8.83812 13.6688 0 
154 1 0.377463 79.5 9.44521 13.6686 0 
248 1 0.417624 79.5 10.0333 13.5507 0 
142 1 0.376502 79.5 10.6719 13.5556 0 
28 1 0.376324 79.5 11.3135 13.5819 0 
116 1 0.418074 79.5 8.15071 13.8696 0 
137 1 0.377547 79.5 9.22133 14.1849 0 
206 1 0.377502 79.5 9.78215 14.1164 0 
290 1 0.417552 79.5 10.3717 14.046 0 
138 1 0.417163 79.5 10.9995 14.0588 0 
5 1 0.417956 79.5 11.7506 13.9907 0 
82 1 0.37548 79.5 12.4103 14.0337 0 
292 1 0.419322 79.5 6.97928 14.5603 0 
187 1 0.376835 79.5 7.51487 14.2399 0 
271 1 0.419038 79.5 8.03752 14.4575 0 
156 1 0.41736 79.5 8.65761 14.2288 0 
235 1 0.417949 79.5 9.55397 14.6107 0 
215 1 0.417318 79.5 10.1069 14.5384 0 
246 1 0.419558 79.5 10.6523 14.5142 0 
270 1 0.377661 79.5 11.1889 14.5436 0 
77 1 0.416408 79.5 11.6889 14.5423 0 
159 1 0.418141 79.5 12.2289 14.5642 0 
95 1 0.378511 79.5 12.7758 14.5881 0 
139 1 0.377813 79.5 13.346 14.609 0 
279 1 0.419009 79.5 6.57442 15.0004 0 
78 1 0.376793 79.5 7.4849 14.8282 0 
300 1 0.417817 79.5 7.96631 15.0019 0 
227 1 0.419731 79.5 8.51207 14.7406 0 
172 1 0.377906 79.5 9.03914 14.6751 0 
74 1 0.418792 79.5 9.36866 15.1059 0 
91 1 0.375891 79.5 9.89472 14.986 0 
55 1 0.377258 79.5 10.4105 14.9623 0 
225 1 0.418808 79.5 10.9255 14.9692 0 
131 1 0.37743 79.5 11.4398 15.0108 0 
104 1 0.417492 79.5 11.9527 15.0381 0 
195 1 0.376076 79.5 12.4794 15.0732 0 
277 1 0.378085 79.5 13.0306 15.0932 0 
211 1 0.376915 79.5 6.13616 15.3634 0 
34 1 0.376733 79.5 7.12 15.2135 0 
56 1 0.417661 79.5 7.62159 15.3961 0 
37 1 0.376521 79.5 8.39169 15.2137 0 
231 1 0.418206 79.5 8.87701 15.1534 0 
14 1 0.378044 79.5 9.71567 15.407 0 
250 1 0.419005 79.5 10.1894 15.3831 0 
20 1 0.418644 79.5 10.6837 15.3981 0 
109 1 0.416555 79.5 11.1811 15.4238 0 
81 1 0.377631 79.5 11.6836 15.4571 0 
60 1 0.378985 79.5 12.1831 15.4988 0 
57 1 0.417312 79.5 12.7256 15.5329 0 
16 1 0.418857 79.5 13.6751 15.1174 0 
61 1 0.416969 79.5 5.69769 15.7695 0 
251 1 0.418401 79.5 6.29007 15.905 0 
76 1 0.376361 79.5 6.72991 15.5626 0 
249 1 0.37714 79.5 7.24467 15.7329 0 
62 1 0.419478 79.5 7.76931 15.9042 0 
103 1 0.376732 79.5 8.10515 15.5704 0 
147 1 0.378206 79.5 8.33591 15.9706 0 
128 1 0.417636 79.5 8.63476 15.606 0 
226 1 0.418002 79.5 9.13404 15.5941 0 
93 1 0.375858 79.5 9.53823 15.7811 0 
96 1 0.375974 79.5 9.9886 15.8031 0 
144 1 0.417225 79.5 10.445 15.8111 0 
275 1 0.375236 79.5 10.9221 15.8281 0 
149 1 0.420339 79.5 11.4138 15.8547 0 
239 1 0.376202 79.5 11.8973 15.8872 0 
6 1 0.41784 79.5 12.4133 15.9367 0 
205 1 0.417837 79.5 13.286 15.5767 0 
19 1 0.377048 79.5 13.9067 15.6375 0 
180 1 0.4178 79.5 5.27116 16.2074 0 
264 1 0.375728 79.5 5.91241 16.3249 0 
54 1 0.417762 79.5 6.44542 16.4254 0 
223 1 0.377582 79.5 6.81336 16.056 0 
111 1 0.377387 79.5 7.26516 16.1959 0 
273 1 0.375407 79.5 7.67252 16.3458 0 
150 1 0.42017 79.5 8.11181 16.3523 0 
247 1 0.417974 79.5 8.5777 16.4151 0 
36 1 0.41802 79.5 8.83004 16.0285 0 
259 1 0.416952 79.5 9.27124 16.1206 0 
53 1 0.418687 79.5 9.74778 16.1815 0 
234 1 0.376567 79.5 10.1982 16.2085 0 
18 1 0.417229 79.5 10.6607 16.2165 0 
72 1 0.418442 79.5 11.1403 16.2417 0 
193 1 0.377638 79.5 11.6197 16.2753 0 
86 1 0.418347 79.5 12.0975 16.3117 0 
110 1 0.376982 79.5 12.6115 16.3747 0 
295 1 0.376364 79.5 12.9373 16.0033 0 
112 1 0.37724 79.5 13.1331 16.4343 0 
256 1 0.417029 79.5 13.5018 16.0599 0 
236 1 0.417091 79.5 14.0993 16.1428 0 
98 1 0.376685 79.5 14.6528 16.3548 0 
70 1 0.418537 79.5 4.86671 16.7232 0 
257 1 0.417584 79.5 5.54018 16.7272 0 
88 1 0.377633 79.5 6.11397 16.8155 0 
85 1 0.378114 79.5 6.93533 16.5428 0 
13 1 0.376492 79.5 7.39158 16.6732 0 
113 1 0.376209 79.5 7.85419 16.7492 0 
196 1 0.417674 79.5 8.31973 16.7954 0 
44 1 0.376441 79.5 8.77037 16.8602 0 
48 1 0.417895 79.5 9.02537 16.5099 0 
73 1 0.418056 79.5 9.48144 16.5475 0 
207 1 0.375123 79.5 9.94318 16.5722 0 
134 1 0.377548 79.5 10.3997 16.5806 0 
299 1 0.376562 79.5 10.8687 16.5982 0 
214 1 0.375802 79.5 11.3525 16.6328 0 
289 1 0.377045 79.5 11.8054 16.6773 0 
303 1 0.377701 79.5 12.292 16.7168 0 
291 1 0.418671 79.5 12.8089 16.7982 0 
35 1 0.375085 79.5 13.2858 16.8874 0 
203 1 0.418748 79.5 13.6643 16.5566 0 
105 1 0.378261 79.5 14.1837 16.6754 0 
66 1 0.417743 79.5 15.2222 16.7394 0 
254 1 0.418928 79.5 5.20092 17.2036 0 
100 1 0.41738 79.5 5.78869 17.2072 0 
136 1 0.377551 79.5 6.30844 17.2786 0 
124 1 0.377489 79.5 6.60862 16.9072 0 
52 1 0.417492 79.5 7.08549 17.0051 0 
64 1 0.37804 79.5 7.56187 17.0891 0 
197 1 0.418138 79.5 8.02802 17.1529 0 
281 1 0.419313 79.5 8.50446 17.2216 0 
67 1 0.375259 79.5 9.22678 16.9162 0 
99 1 0.418162 79.5 8.96395 17.2502 0 
204 1 0.417908 79.5 9.6731 16.9419 0 
39 1 0.417739 79.5 9.42288 17.3186 0 
125 1 0.417497 79.5 9.89389 17.3138 0 
40 1 0.417655 79.5 10.141 16.939 0 
119 1 0.418318 79.5 10.6106 16.9509 0 
198 1 0.418579 79.5 10.358 17.313 0 
153 1 0.418903 79.5 11.0776 16.9703 0 
65 1 0.375901 79.5 10.8174 17.322 0 
269 1 0.377027 79.5 11.5371 17.0242 0 
278 1 0.377425 79.5 11.998 17.0564 0 
2 1 0.418632 79.5 12.4718 17.1245 0 
167 1 0.376423 79.5 12.9635 17.2553 0 
126 1 0.377564 79.5 13.7903 17.0515 0 
158 1 0.378408 79.5 14.2499 17.1651 0 
244 1 0.377185 79.5 14.7005 16.9612 0 
90 1 0.418215 79.5 4.56761 17.3847 0 
1 1 0.416656 79.5 5.01326 17.7603 0 
7 1 0.376836 79.5 5.50748 17.6403 0 
25 1 0.418251 79.5 6.02061 17.6761 0 
294 1 0.420196 79.5 6.51196 17.7533 0 
162 1 0.417925 79.5 6.78469 17.3736 0 
170 1 0.419066 79.5 7.2618 17.4532 0 
152 1 0.419353 79.5 7.71773 17.5108 0 
224 1 0.417151 79.5 8.17028 17.5694 0 
168 1 0.377281 79.5 8.58038 17.6359 0 
202 1 0.416907 79.5 8.97529 17.6668 0 
143 1 0.378123 79.5 9.36674 17.7198 0 
228 1 0.377094 79.5 9.74107 17.687 0 
151 1 0.377236 79.5 10.1366 17.6694 0 
106 1 0.418321 79.5 10.5787 17.6723 0 
233 1 0.376541 79.5 11.0025 17.6807 0 
181 1 0.377496 79.5 11.2576 17.3471 0 
268 1 0.418081 79.5 11.4554 17.7042 0 
46 1 0.377328 79.5 11.7327 17.3912 0 
10 1 0.377297 79.5 12.1687 17.4524 0 
237 1 0.377021 79.5 12.636 17.5302 0 
115 1 0.377962 79.5 13.1281 17.7119 0 
43 1 0.416658 79.5 13.427 17.3362 0 
23 1 0.377532 79.5 13.5866 17.7526 0 
297 1 0.418019 79.5 14.0139 17.5846 0 
182 1 0.376421 79.5 14.5828 17.5304 0 
130 1 0.41741 79.5 15.1394 17.3975 0 
265 1 0.4186 79.5 4.51092 18.0966 0 
232 1 0.41966 79.5 5.70721 18.0807 0 
219 1 0.416465 79.5 6.22338 18.1473 0 
217 1 0.420187 79.5 6.72552 18.1864 0 
175 1 0.375285 79.5 6.99657 17.8165 0 
117 1 0.376414 79.5 7.44812 17.8779 0 
177 1 0.417786 79.5 7.89091 17.9321 0 
210 1 0.417016 79.5 8.32792 17.9907 0 
201 1 0.37868 79.5 8.74186 18.0311 0 
51 1 0.378133 79.5 9.13585 18.0586 0 
280 1 0.376116 79.5 9.53037 18.0742 0 
287 1 0.378509 79.5 9.91345 18.0346 0 
102 1 0.419434 79.5 10.3302 18.0206 0 
22 1 0.376996 79.5 10.7587 18.0366 0 
190 1 0.417687 79.5 11.1848 18.0435 0 
80 1 0.376209 79.5 11.9068 17.7859 0 
29 1 0.417393 79.5 11.636 18.0934 0 
242 1 0.419369 79.5 12.3339 17.8598 0 
31 1 0.376295 79.5 12.775 17.9193 0 
240 1 0.417923 79.5 13.3889 18.1494 0 
185 1 0.37559 79.5 13.8756 18.1069 0 
286 1 0.417076 79.5 14.3557 17.9936 0 
241 1 0.375449 79.5 14.9067 17.9393 0 
179 1 0.419049 79.5 15.5357 17.9031 0 
263 1 0.375892 79.5 4.1577 18.6169 0 
4 1 0.418796 79.5 5.1011 18.2767 0 
183 1 0.418934 79.5 5.53685 18.5237 0 
243 1 0.376024 79.5 6.01373 18.5553 0 
260 1 0.417822 79.5 6.48503 18.5843 0 
200 1 0.417021 79.5 6.94716 18.6285 0 
157 1 0.417922 79.5 7.19311 18.236 0 
186 1 0.417704 79.5 7.39964 18.6613 0 
188 1 0.417316 79.5 7.64928 18.2968 0 
189 1 0.374207 79.5 8.08236 18.3377 0 
132 1 0.378247 79.5 8.50782 18.3717 0 
222 1 0.376423 79.5 8.91403 18.3987 0 
108 1 0.37715 79.5 9.30452 18.4099 0 
261 1 0.377169 79.5 9.70344 18.415 0 
178 1 0.415965 79.5 10.0972 18.3862 0 
262 1 0.418034 79.5 10.5222 18.3909 0 
58 1 0.415805 79.5 10.9447 18.3987 0 
229 1 0.41843 79.5 11.3606 18.4349 0 
9 1 0.378113 79.5 11.7717 18.4758 0 
164 1 0.419166 79.5 12.0861 18.2302 0 
127 1 0.417806 79.5 12.3004 18.6613 0 
221 1 0.419252 79.5 12.5285 18.2861 0 
17 1 0.37517 79.5 12.7725 18.6528 0 
274 1 0.37582 79.5 12.9728 18.272 0 
255 1 0.419607 79.5 13.2488 18.6138 0 
208 1 0.376279 79.5 13.6939 18.5385 0 
79 1 0.376387 79.5 14.1645 18.4753 0 
173 1 0.377039 79.5 14.6648 18.4012 0 
107 1 0.375813 79.5 15.213 18.3797 0 
84 1 0.417941 79.5 4.74099 18.6964 0 
298 1 0.374614 79.5 5.23793 18.8858 0 
212 1 0.41762 79.5 5.75546 18.9659 0 
148 1 0.418606 79.5 6.25305 18.9814 0 
120 1 0.378184 79.5 6.72808 19.0149 0 
163 1 0.376966 79.5 7.16511 19.0347 0 
42 1 0.418538 79.5 7.61906 19.0459 0 
97 1 0.377275 79.5 7.8485 18.6903 0 
75 1 0.376447 79.5 8.05587 19.0748 0 
213 1 0.418946 79.5 8.26617 18.7155 0 
129 1 0.417621 79.5 8.47234 19.1035 0 
59 1 0.419658 79.5 8.69783 18.7476 0 
140 1 0.378892 79.5 9.09717 18.7616 0 
94 1 0.419162 79.5 9.49925 18.7565 0 
68 1 0.37735 79.5 9.90051 18.7673 0 
92 1 0.417624 79.5 10.296 18.7488 0 
276 1 0.417911 79.5 10.5048 19.103 0 
192 1 0.418338 79.5 10.728 18.7541 0 
230 1 0.376846 79.5 11.1283 18.781 0 
101 1 0.376457 79.5 11.5222 18.8071 0 
155 1 0.37768 79.5 11.9246 18.8186 0 
302 1 0.377055 79.5 12.1642 19.1086 0 
165 1 0.417616 79.5 12.5813 19.0316 0 
174 1 0.419338 79.5 13.046 19.0178 0 
272 1 0.378957 79.5 13.5029 18.997 0 
24 1 0.416559 79.5 13.9589 18.9286 0 
191 1 0.419678 79.5 14.4656 18.8708 0 
176 1 0.376448 79.5 14.9734 18.8214 0 
146 1 0.418691 79.5 15.7012 18.7084 0 
71 1 0.377916 79.5 4.39722 19.1511 0 
258 1 0.419432 79.5 4.93894 19.2676 0 
169 1 0.378453 79.5 5.466 19.3417 0 
199 1 0.417759 79.5 5.99646 19.3876 0 
166 1 0.418977 79.5 6.48619 19.3961 0 
245 1 0.376779 79.5 6.94682 19.4087 0 
301 1 0.41979 79.5 7.38084 19.4202 0 
122 1 0.41785 79.5 7.84273 19.4246 0 
63 1 0.377654 79.5 8.27504 19.4534 0 
38 1 0.377736 79.5 8.67948 19.4574 0 
15 1 0.377305 79.5 8.88812 19.1195 0 
184 1 0.417741 79.5 9.28759 19.1187 0 
8 1 0.378024 79.5 9.08936 19.4623 0 
118 1 0.41851 79.5 9.70418 19.1189 0 
87 1 0.377593 79.5 9.49508 19.4644 0 
69 1 0.376926 79.5 10.1007 19.118 0 
296 1 0.418792 79.5 9.89052 19.4881 0 
121 1 0.418093 79.5 10.2999 19.4617 0 
293 1 0.417075 79.5 10.7208 19.4531 0 
89 1 0.376485 79.5 10.9216 19.1122 0 
284 1 0.376238 79.5 11.1258 19.4618 0 
283 1 0.377483 79.5 11.3141 19.1354 0 
216 1 0.376432 79.5 11.5183 19.4848 0 
41 1 0.375472 79.5 11.7168 19.1496 0 
209 1 0.419672 79.5 11.9509 19.4734 0 
49 1 0.419815 79.5 12.3956 19.4448 0 
45 1 0.41618 79.5 12.8518 19.4154 0 
288 1 0.377512 79.5 13.2999 19.4066 0 
266 1 0.376034 79.5 13.7472 19.3739 0 
160 1 0.418475 79.5 14.2444 19.3308 0 
30 1 0.376677 79.5 14.7676 19.287 0 
238 1 0.417818 79.5 15.3444 19.1858 0 
50 1 0.378881 79.5 4.06552 19.6056 0 
123 1 0.416947 79.5 4.64087 19.6977 0 
33 1 0.378072 79.5 5.19623 19.7379 0 
21 1 0.420824 79.5 5.71668 19.7639 0 
135 1 0.377153 79.5 6.23849 19.7883 0 
161 1 0.416955 79.5 6.72033 19.7915 0 
252 1 0.378093 79.5 7.17003 19.8043 0 
194 1 0.416887 79.5 7.61249 19.7961 0 
218 1 0.418811 79.5 8.05932 19.7978 0 
32 1 0.375477 79.5 8.47582 19.8154 0 
145 1 0.419666 79.5 8.8799 19.8013 0 
253 1 0.415824 79.5 9.29674 19.8046 0 
12 1 0.37772 79.5 9.69167 19.826 0 
27 1 0.375782 79.5 10.1012 19.8237 0 
133 1 0.418748 79.5 10.5115 19.8116 0 
47 1 0.418289 79.5 10.9321 19.8071 0 
285 1 0.37676 79.5 11.3309 19.818 0 
11 1 0.377588 79.5 11.7374 19.8178 0 
220 1 0.375738 79.5 12.1724 19.8168 0 
26 1 0.417817 79.5 12.6273 19.7972 0 
114 1 0.376368 79.5 13.0803 19.7989 0 
3 1 0.376593 79.5 13.5259 19.7835 0 
282 1 0.416306 79.5 14.0067 19.7626 0 
171 1 0.417726 79.5 14.539 19.7391 0 
83 1 0.419111 79.5 15.0996 19.6952 0 
267 1 0.418107 79.5 15.7317 19.6108 0 
