# LAMMPS data file for rigid bodies

303 atoms

1 atom types

0.0 	 20.0 	 xlo xhi 
0.0 	 20.0 	 ylo yhi 
-1.0 	 1.0 	 zlo zhi 

Atoms

116 1 0.418074 79.5 8.61198 13.6641 0 
141 1 0.417537 79.5 9.24597 13.5116 0 
248 1 0.417624 79.5 9.93395 13.5963 0 
142 1 0.376502 79.5 10.5 13.3547 0 
159 1 0.418141 79.5 11.0796 13.6239 0 
78 1 0.376793 79.5 7.94617 13.9645 0 
156 1 0.41736 79.5 9.02635 14.1676 0 
154 1 0.377463 79.5 9.52701 14.0009 0 
290 1 0.417552 79.5 10.0297 14.1989 0 
138 1 0.417163 79.5 10.5169 13.927 0 
28 1 0.376324 79.5 11.5533 13.9751 0 
5 1 0.417956 79.5 12.3799 13.9991 0 
211 1 0.376915 79.5 6.62622 14.6023 0 
187 1 0.376835 79.5 7.4621 14.3636 0 
300 1 0.417817 79.5 8.02862 14.5495 0 
271 1 0.419038 79.5 8.48137 14.2382 0 
137 1 0.377547 79.5 9.56819 14.4995 0 
215 1 0.417318 79.5 10.5119 14.4879 0 
77 1 0.416408 79.5 11.0118 14.2286 0 
104 1 0.417492 79.5 11.4379 14.5753 0 
82 1 0.37548 79.5 11.9307 14.3473 0 
95 1 0.378511 79.5 12.3854 14.6337 0 
139 1 0.377813 79.5 12.9144 14.4029 0 
34 1 0.376733 79.5 6.14522 15.0904 0 
76 1 0.376361 79.5 7.13511 14.8258 0 
56 1 0.417661 79.5 7.6468 14.9485 0 
231 1 0.418206 79.5 8.18017 15.0671 0 
227 1 0.419731 79.5 8.62512 14.7597 0 
172 1 0.377906 79.5 9.12072 14.6788 0 
206 1 0.377502 79.5 9.59474 14.9779 0 
235 1 0.417949 79.5 10.0391 14.7348 0 
225 1 0.418808 79.5 10.4871 15.0202 0 
246 1 0.419558 79.5 10.952 14.7939 0 
131 1 0.37743 79.5 11.3591 15.1009 0 
195 1 0.376076 79.5 11.8757 14.8557 0 
205 1 0.417837 79.5 12.8452 14.9804 0 
277 1 0.378085 79.5 13.4249 14.7883 0 
279 1 0.419009 79.5 6.71702 15.206 0 
249 1 0.37714 79.5 7.25678 15.3557 0 
103 1 0.376732 79.5 7.75112 15.4454 0 
74 1 0.418792 79.5 8.68841 15.2712 0 
37 1 0.376521 79.5 9.15404 15.1353 0 
91 1 0.375891 79.5 9.59075 15.4299 0 
55 1 0.377258 79.5 10.0323 15.2225 0 
96 1 0.375974 79.5 10.457 15.4929 0 
270 1 0.377661 79.5 10.9079 15.3009 0 
6 1 0.41784 79.5 11.7941 15.3267 0 
60 1 0.378985 79.5 12.3156 15.1394 0 
295 1 0.376364 79.5 12.7399 15.4956 0 
16 1 0.418857 79.5 13.2942 15.3521 0 
19 1 0.377048 79.5 13.8697 15.2585 0 
292 1 0.419322 79.5 5.69556 15.5641 0 
61 1 0.416969 79.5 6.31118 15.6606 0 
251 1 0.418401 79.5 6.85299 15.7375 0 
223 1 0.377582 79.5 7.35957 15.8348 0 
62 1 0.419478 79.5 7.83927 15.9183 0 
150 1 0.42017 79.5 8.23962 15.5618 0 
36 1 0.41802 79.5 8.70541 15.7622 0 
226 1 0.418002 79.5 9.15077 15.5938 0 
234 1 0.376567 79.5 9.5556 15.8768 0 
250 1 0.419005 79.5 10.0022 15.6777 0 
149 1 0.420339 79.5 10.4044 15.9518 0 
109 1 0.416555 79.5 10.8594 15.7684 0 
81 1 0.377631 79.5 11.3106 15.5799 0 
239 1 0.376202 79.5 11.729 15.7783 0 
86 1 0.418347 79.5 12.2312 15.6167 0 
110 1 0.376982 79.5 12.6267 15.9605 0 
57 1 0.417312 79.5 13.1465 15.862 0 
112 1 0.37724 79.5 13.6927 15.8021 0 
236 1 0.417091 79.5 14.3057 15.7078 0 
264 1 0.375728 79.5 5.35437 16.1007 0 
180 1 0.4178 79.5 5.96551 16.1125 0 
147 1 0.378206 79.5 6.49794 16.1865 0 
54 1 0.417762 79.5 6.99902 16.2272 0 
85 1 0.378114 79.5 7.49732 16.2879 0 
13 1 0.376492 79.5 7.95291 16.3739 0 
273 1 0.375407 79.5 8.29852 16.0261 0 
128 1 0.417636 79.5 8.73586 16.2255 0 
14 1 0.378044 79.5 9.14975 16.0476 0 
93 1 0.375858 79.5 9.50537 16.32 0 
144 1 0.417225 79.5 9.93312 16.1354 0 
53 1 0.418687 79.5 10.3141 16.4 0 
275 1 0.375236 79.5 10.7816 16.2197 0 
20 1 0.418644 79.5 11.2524 16.0575 0 
193 1 0.377638 79.5 11.688 16.19 0 
303 1 0.377701 79.5 12.1438 16.0663 0 
289 1 0.377045 79.5 12.5005 16.3961 0 
203 1 0.418748 79.5 12.991 16.3399 0 
98 1 0.376685 79.5 13.5117 16.282 0 
256 1 0.417029 79.5 14.0632 16.2509 0 
66 1 0.417743 79.5 14.684 16.2559 0 
70 1 0.418537 79.5 4.89152 16.5485 0 
100 1 0.41738 79.5 5.65848 16.5786 0 
88 1 0.377633 79.5 6.1866 16.6178 0 
111 1 0.377387 79.5 6.6719 16.6549 0 
52 1 0.417492 79.5 7.19311 16.6713 0 
196 1 0.417674 79.5 7.67973 16.7321 0 
113 1 0.376209 79.5 8.37066 16.45 0 
162 1 0.417925 79.5 8.17417 16.8208 0 
44 1 0.376441 79.5 8.68175 16.7222 0 
247 1 0.417974 79.5 9.08813 16.5013 0 
48 1 0.417895 79.5 9.45319 16.7688 0 
259 1 0.416952 79.5 9.87142 16.5859 0 
73 1 0.418056 79.5 10.2279 16.8516 0 
18 1 0.417229 79.5 10.6793 16.648 0 
72 1 0.418442 79.5 11.1365 16.5114 0 
214 1 0.375802 79.5 11.565 16.5703 0 
278 1 0.377425 79.5 12.0338 16.4825 0 
291 1 0.418671 79.5 12.3598 16.8255 0 
35 1 0.375085 79.5 12.8233 16.779 0 
126 1 0.377564 79.5 13.3238 16.7245 0 
158 1 0.378408 79.5 13.8231 16.7204 0 
105 1 0.378261 79.5 14.3579 16.7506 0 
244 1 0.377185 79.5 14.9252 16.8292 0 
254 1 0.418928 79.5 4.7966 17.3045 0 
257 1 0.417584 79.5 5.28461 16.971 0 
7 1 0.376836 79.5 5.84622 17.0799 0 
124 1 0.377489 79.5 6.32649 17.0754 0 
64 1 0.37804 79.5 6.90689 17.0387 0 
175 1 0.375285 79.5 7.37183 17.1049 0 
152 1 0.419353 79.5 7.81858 17.168 0 
197 1 0.418138 79.5 8.25425 17.2455 0 
281 1 0.419313 79.5 8.66273 17.1433 0 
168 1 0.377281 79.5 9.06752 16.9355 0 
134 1 0.377548 79.5 9.44961 17.2278 0 
67 1 0.375259 79.5 9.78168 17.0179 0 
204 1 0.417908 79.5 10.0874 17.2672 0 
207 1 0.375123 79.5 10.5849 17.0623 0 
153 1 0.418903 79.5 11.0167 16.9517 0 
10 1 0.377297 79.5 11.4406 16.9512 0 
233 1 0.376541 79.5 11.3005 17.3262 0 
2 1 0.418632 79.5 11.8903 16.8932 0 
237 1 0.377021 79.5 11.7333 17.2852 0 
269 1 0.377027 79.5 12.1862 17.2414 0 
167 1 0.376423 79.5 12.6303 17.1964 0 
43 1 0.416658 79.5 13.1199 17.1454 0 
182 1 0.376421 79.5 13.6117 17.1505 0 
208 1 0.376279 79.5 14.0988 17.1841 0 
286 1 0.417076 79.5 14.6011 17.305 0 
232 1 0.41966 79.5 5.4298 17.4773 0 
136 1 0.377551 79.5 5.94821 17.5513 0 
25 1 0.418251 79.5 6.6371 17.3984 0 
219 1 0.416465 79.5 6.36051 17.7546 0 
157 1 0.417922 79.5 7.10975 17.4762 0 
294 1 0.420196 79.5 7.56828 17.5462 0 
177 1 0.417786 79.5 8.02935 17.6143 0 
170 1 0.419066 79.5 8.52169 17.5947 0 
99 1 0.418162 79.5 9.04327 17.3411 0 
202 1 0.416907 79.5 8.93789 17.7422 0 
125 1 0.417497 79.5 9.37532 17.6516 0 
143 1 0.378123 79.5 9.76297 17.5274 0 
106 1 0.418321 79.5 10.1493 17.7152 0 
39 1 0.417739 79.5 10.4638 17.4418 0 
299 1 0.376562 79.5 10.8933 17.3539 0 
40 1 0.417655 79.5 10.7478 17.7391 0 
46 1 0.377328 79.5 11.1558 17.7007 0 
119 1 0.418318 79.5 11.5747 17.6716 0 
242 1 0.419369 79.5 12.0189 17.6352 0 
23 1 0.377532 79.5 12.4519 17.607 0 
297 1 0.418019 79.5 12.8995 17.56 0 
115 1 0.377962 79.5 13.3888 17.5489 0 
185 1 0.37559 79.5 13.8771 17.5937 0 
241 1 0.375449 79.5 14.3256 17.7657 0 
130 1 0.41741 79.5 15.2147 17.37 0 
90 1 0.418215 79.5 4.39047 17.8141 0 
1 1 0.416656 79.5 5.00946 17.8722 0 
183 1 0.418934 79.5 5.56938 17.9758 0 
200 1 0.417021 79.5 6.04617 18.1059 0 
148 1 0.418606 79.5 6.54064 18.207 0 
243 1 0.376024 79.5 6.83749 17.8399 0 
117 1 0.376414 79.5 7.29335 17.9014 0 
189 1 0.374207 79.5 7.73693 17.9528 0 
222 1 0.376423 79.5 8.16944 17.9942 0 
224 1 0.417151 79.5 8.57354 18.022 0 
132 1 0.378247 79.5 8.97058 18.1355 0 
51 1 0.378133 79.5 9.33677 18.0473 0 
198 1 0.418579 79.5 9.73476 17.9661 0 
280 1 0.376116 79.5 10.1063 18.1054 0 
151 1 0.377236 79.5 10.4999 18.0461 0 
102 1 0.419434 79.5 10.9772 18.0844 0 
268 1 0.418081 79.5 11.397 18.064 0 
190 1 0.417687 79.5 11.8384 18.0416 0 
181 1 0.377496 79.5 12.2636 18.0072 0 
31 1 0.376295 79.5 12.6889 17.9735 0 
240 1 0.417923 79.5 13.1418 17.9473 0 
79 1 0.376387 79.5 13.6124 17.9538 0 
24 1 0.416559 79.5 14.0183 18.1524 0 
173 1 0.377039 79.5 14.8369 17.8089 0 
179 1 0.419049 79.5 15.5525 17.9092 0 
265 1 0.4186 79.5 4.6428 18.3653 0 
4 1 0.418796 79.5 5.228 18.3911 0 
260 1 0.417822 79.5 5.75066 18.496 0 
199 1 0.417759 79.5 6.25073 18.5783 0 
217 1 0.420187 79.5 7.00912 18.2564 0 
245 1 0.376779 79.5 6.74407 18.6308 0 
188 1 0.417316 79.5 7.46935 18.3078 0 
210 1 0.417016 79.5 7.90986 18.3469 0 
201 1 0.37868 79.5 8.32479 18.3786 0 
228 1 0.377094 79.5 8.72663 18.4227 0 
261 1 0.377169 79.5 9.15285 18.4642 0 
213 1 0.418946 79.5 9.54063 18.3894 0 
287 1 0.378509 79.5 9.93022 18.4358 0 
178 1 0.415965 79.5 10.35 18.4158 0 
92 1 0.417624 79.5 10.7611 18.4355 0 
22 1 0.376996 79.5 11.1972 18.4365 0 
58 1 0.415805 79.5 11.6269 18.4236 0 
65 1 0.375901 79.5 12.062 18.4028 0 
255 1 0.419607 79.5 12.4943 18.3727 0 
274 1 0.37582 79.5 12.9315 18.3473 0 
272 1 0.378957 79.5 13.3876 18.3187 0 
221 1 0.419252 79.5 13.7174 18.6014 0 
176 1 0.376448 79.5 14.1857 18.589 0 
191 1 0.419678 79.5 14.5667 18.2838 0 
107 1 0.375813 79.5 15.1094 18.2552 0 
146 1 0.418691 79.5 15.5938 18.6073 0 
263 1 0.375892 79.5 4.25276 18.809 0 
298 1 0.374614 79.5 4.94469 18.8287 0 
258 1 0.419432 79.5 5.46809 18.8982 0 
71 1 0.377916 79.5 5.97556 18.9562 0 
166 1 0.418977 79.5 6.48316 18.997 0 
163 1 0.376966 79.5 6.94379 19.0325 0 
186 1 0.417704 79.5 7.20141 18.6737 0 
42 1 0.418538 79.5 7.41302 19.0613 0 
97 1 0.377275 79.5 7.66102 18.7077 0 
75 1 0.376447 79.5 7.85278 19.0824 0 
108 1 0.37715 79.5 8.07873 18.7343 0 
129 1 0.417621 79.5 8.28339 19.1046 0 
184 1 0.417741 79.5 8.50145 18.752 0 
59 1 0.419658 79.5 8.91876 18.7845 0 
69 1 0.376926 79.5 9.35039 18.7903 0 
140 1 0.378892 79.5 9.72709 18.7779 0 
262 1 0.418034 79.5 10.1406 18.7709 0 
216 1 0.376432 79.5 10.5619 18.7806 0 
192 1 0.418338 79.5 10.9899 18.7832 0 
127 1 0.417806 79.5 11.4152 18.7937 0 
229 1 0.41843 79.5 11.8555 18.7833 0 
164 1 0.419166 79.5 12.294 18.773 0 
80 1 0.376209 79.5 12.7383 18.7384 0 
29 1 0.417393 79.5 13.1921 18.7121 0 
101 1 0.376457 79.5 12.9711 19.0926 0 
282 1 0.416306 79.5 13.4889 19.0456 0 
266 1 0.376034 79.5 13.9631 19.0064 0 
30 1 0.376677 79.5 14.4662 18.9267 0 
160 1 0.418475 79.5 14.9356 18.7445 0 
84 1 0.417941 79.5 4.62137 19.2398 0 
212 1 0.41762 79.5 5.18402 19.3166 0 
33 1 0.378072 79.5 5.70886 19.3424 0 
21 1 0.420824 79.5 6.20982 19.3712 0 
135 1 0.377153 79.5 6.70269 19.405 0 
122 1 0.41785 79.5 7.15182 19.4203 0 
63 1 0.377654 79.5 7.61978 19.4301 0 
218 1 0.418811 79.5 8.063 19.457 0 
38 1 0.377736 79.5 8.49008 19.4615 0 
15 1 0.377305 79.5 8.70852 19.1341 0 
118 1 0.41851 79.5 9.1362 19.1382 0 
8 1 0.378024 79.5 8.91381 19.4668 0 
12 1 0.37772 79.5 9.33868 19.4786 0 
68 1 0.37735 79.5 9.53345 19.1387 0 
94 1 0.419162 79.5 9.73427 19.4936 0 
276 1 0.417911 79.5 9.92971 19.1268 0 
296 1 0.418792 79.5 10.1501 19.4795 0 
121 1 0.418093 79.5 10.3597 19.1206 0 
293 1 0.417075 79.5 10.5891 19.4607 0 
89 1 0.376485 79.5 10.779 19.1166 0 
284 1 0.376238 79.5 10.9986 19.457 0 
283 1 0.377483 79.5 11.194 19.1342 0 
209 1 0.419672 79.5 11.414 19.475 0 
230 1 0.376846 79.5 11.6307 19.136 0 
41 1 0.375472 79.5 11.8411 19.4691 0 
155 1 0.37768 79.5 12.0646 19.1379 0 
165 1 0.417616 79.5 12.3139 19.4582 0 
9 1 0.378113 79.5 12.5376 19.1116 0 
17 1 0.37517 79.5 12.7645 19.4663 0 
49 1 0.419815 79.5 13.2323 19.4333 0 
288 1 0.377512 79.5 13.7466 19.4149 0 
171 1 0.417726 79.5 14.2533 19.3747 0 
267 1 0.418107 79.5 14.7918 19.2959 0 
174 1 0.419338 79.5 15.3462 19.1465 0 
120 1 0.378184 79.5 4.27585 19.6527 0 
169 1 0.378453 79.5 4.89182 19.7264 0 
50 1 0.378881 79.5 5.44192 19.7483 0 
123 1 0.416947 79.5 5.94525 19.7655 0 
161 1 0.416955 79.5 6.45611 19.78 0 
252 1 0.378093 79.5 6.92239 19.8002 0 
194 1 0.416887 79.5 7.37887 19.7944 0 
301 1 0.41979 79.5 7.82605 19.7994 0 
32 1 0.375477 79.5 8.27579 19.8163 0 
145 1 0.419666 79.5 8.69666 19.8013 0 
253 1 0.415824 79.5 9.12056 19.8055 0 
87 1 0.377593 79.5 9.52572 19.8267 0 
27 1 0.375782 79.5 9.95099 19.8254 0 
47 1 0.418289 79.5 10.3831 19.8161 0 
133 1 0.418748 79.5 10.8133 19.8069 0 
285 1 0.37676 79.5 11.2136 19.8184 0 
11 1 0.377588 79.5 11.6327 19.8172 0 
26 1 0.417817 79.5 12.0715 19.7993 0 
302 1 0.377055 79.5 12.5352 19.8143 0 
220 1 0.375738 79.5 12.994 19.8122 0 
45 1 0.41618 79.5 13.4976 19.7921 0 
3 1 0.376593 79.5 14.0056 19.7802 0 
114 1 0.376368 79.5 14.5415 19.7549 0 
83 1 0.419111 79.5 15.1182 19.7011 0 
238 1 0.417818 79.5 15.7271 19.5956 0 
