# LAMMPS data file for rigid bodies

303 atoms

1 atom types

0.0 	 20.0 	 xlo xhi 
0.0 	 20.0 	 ylo yhi 
-1.0 	 1.0 	 zlo zhi 

Atoms

154 1 0.377463 79.5 8.79543 13.7029 0 
248 1 0.417624 79.5 9.39722 13.559 0 
142 1 0.376502 79.5 10.0385 13.4738 0 
77 1 0.416408 79.5 10.7177 13.7596 0 
5 1 0.417956 79.5 11.3569 13.7287 0 
78 1 0.376793 79.5 7.475 14.0622 0 
141 1 0.417537 79.5 8.14257 13.7895 0 
137 1 0.377547 79.5 9.11694 14.1685 0 
290 1 0.417552 79.5 9.65081 14.0817 0 
138 1 0.417163 79.5 10.1957 14.0073 0 
95 1 0.378511 79.5 12.1954 14.1082 0 
187 1 0.376835 79.5 7.35065 14.6077 0 
116 1 0.418074 79.5 7.97218 14.3777 0 
156 1 0.41736 79.5 8.55934 14.2412 0 
235 1 0.417949 79.5 9.45677 14.5991 0 
206 1 0.377502 79.5 9.97948 14.5263 0 
215 1 0.417318 79.5 10.5134 14.4282 0 
246 1 0.419558 79.5 11.0354 14.2804 0 
159 1 0.418141 79.5 11.6277 14.2661 0 
82 1 0.37548 79.5 12.29 14.6506 0 
139 1 0.377813 79.5 12.8534 14.5215 0 
76 1 0.376361 79.5 6.24185 15.0821 0 
211 1 0.376915 79.5 6.80284 14.7843 0 
56 1 0.417661 79.5 7.81615 14.9038 0 
271 1 0.419038 79.5 8.38929 14.7671 0 
300 1 0.417817 79.5 8.92649 14.6761 0 
91 1 0.375891 79.5 9.26122 15.0712 0 
55 1 0.377258 79.5 9.77693 14.9823 0 
270 1 0.377661 79.5 10.2922 14.9041 0 
131 1 0.37743 79.5 10.7948 14.845 0 
104 1 0.417492 79.5 11.2927 14.7693 0 
28 1 0.376324 79.5 11.8007 14.772 0 
16 1 0.418857 79.5 12.6037 15.0801 0 
277 1 0.378085 79.5 13.1322 15.0427 0 
19 1 0.377048 79.5 13.6772 14.9488 0 
292 1 0.419322 79.5 5.68958 15.4675 0 
279 1 0.419009 79.5 6.73993 15.367 0 
34 1 0.376733 79.5 7.27592 15.1334 0 
249 1 0.37714 79.5 7.71276 15.3973 0 
74 1 0.418792 79.5 8.23079 15.2516 0 
172 1 0.377906 79.5 8.76393 15.1542 0 
37 1 0.376521 79.5 9.09141 15.5151 0 
226 1 0.418002 79.5 9.58539 15.426 0 
225 1 0.418808 79.5 10.0962 15.3495 0 
250 1 0.419005 79.5 10.5951 15.3038 0 
109 1 0.416555 79.5 11.0899 15.2651 0 
81 1 0.377631 79.5 11.5757 15.2304 0 
60 1 0.378985 79.5 12.0775 15.1832 0 
295 1 0.376364 79.5 12.4004 15.5511 0 
195 1 0.376076 79.5 12.9018 15.5479 0 
6 1 0.41784 79.5 13.4434 15.5176 0 
57 1 0.417312 79.5 14.0548 15.4572 0 
264 1 0.375728 79.5 5.21835 15.9411 0 
251 1 0.418401 79.5 6.23653 15.6973 0 
147 1 0.378206 79.5 6.70974 15.9188 0 
103 1 0.376732 79.5 7.19186 15.6251 0 
36 1 0.41802 79.5 7.61883 15.8685 0 
150 1 0.42017 79.5 8.09998 15.7367 0 
227 1 0.419731 79.5 8.59802 15.6063 0 
128 1 0.417636 79.5 8.92377 15.9634 0 
48 1 0.417895 79.5 9.41294 15.8704 0 
259 1 0.416952 79.5 9.91977 15.7921 0 
144 1 0.417225 79.5 10.4069 15.754 0 
96 1 0.375974 79.5 10.88 15.7116 0 
239 1 0.376202 79.5 11.3562 15.6745 0 
86 1 0.418347 79.5 11.8565 15.6415 0 
193 1 0.377638 79.5 12.2143 15.9569 0 
110 1 0.376982 79.5 12.6869 15.9905 0 
112 1 0.37724 79.5 13.1798 15.9913 0 
205 1 0.417837 79.5 13.7476 15.9906 0 
236 1 0.417091 79.5 14.3553 15.9942 0 
61 1 0.416969 79.5 5.79293 16.1022 0 
180 1 0.4178 79.5 6.30724 16.2804 0 
62 1 0.419478 79.5 7.14742 16.1235 0 
273 1 0.375407 79.5 7.56824 16.3262 0 
113 1 0.376209 79.5 7.9915 16.2138 0 
231 1 0.418206 79.5 8.44602 16.0835 0 
247 1 0.417974 79.5 8.75876 16.4295 0 
281 1 0.419313 79.5 9.23354 16.3086 0 
53 1 0.418687 79.5 9.74072 16.209 0 
234 1 0.376567 79.5 10.2169 16.1699 0 
14 1 0.378044 79.5 10.6768 16.1306 0 
149 1 0.420339 79.5 11.1404 16.1015 0 
20 1 0.418644 79.5 11.6235 16.0794 0 
72 1 0.418442 79.5 12.0063 16.3361 0 
289 1 0.377045 79.5 12.4724 16.4017 0 
303 1 0.377701 79.5 12.9368 16.4279 0 
203 1 0.418748 79.5 13.4344 16.4375 0 
257 1 0.417584 79.5 5.35447 16.5045 0 
88 1 0.377633 79.5 5.90514 16.6625 0 
223 1 0.377582 79.5 6.38748 16.7954 0 
111 1 0.377387 79.5 6.77798 16.4471 0 
13 1 0.376492 79.5 7.2454 16.6172 0 
196 1 0.417674 79.5 7.79384 16.6953 0 
52 1 0.417492 79.5 8.28415 16.5521 0 
44 1 0.376441 79.5 8.61392 16.8608 0 
64 1 0.37804 79.5 9.07334 16.7306 0 
73 1 0.418056 79.5 9.55913 16.6112 0 
67 1 0.375259 79.5 10.0316 16.552 0 
93 1 0.375858 79.5 10.4899 16.5149 0 
275 1 0.375236 79.5 10.9327 16.5052 0 
134 1 0.377548 79.5 10.7303 16.8794 0 
18 1 0.417229 79.5 11.3993 16.5106 0 
278 1 0.377425 79.5 11.8055 16.6998 0 
2 1 0.418632 79.5 12.2309 16.7988 0 
291 1 0.418671 79.5 12.7012 16.8508 0 
126 1 0.377564 79.5 13.1643 16.8746 0 
98 1 0.376685 79.5 13.9692 16.4826 0 
256 1 0.417029 79.5 14.5423 16.5407 0 
66 1 0.417743 79.5 15.1395 16.6529 0 
70 1 0.418537 79.5 4.89556 16.8955 0 
100 1 0.41738 79.5 5.49733 17.0444 0 
136 1 0.377551 79.5 6.02575 17.1597 0 
85 1 0.378114 79.5 6.50871 17.2623 0 
54 1 0.417762 79.5 6.86314 16.9163 0 
124 1 0.377489 79.5 7.34277 17.0302 0 
175 1 0.375285 79.5 7.75201 17.13 0 
152 1 0.419353 79.5 8.16661 16.9999 0 
162 1 0.417925 79.5 8.4727 17.3044 0 
197 1 0.418138 79.5 8.92853 17.144 0 
204 1 0.417908 79.5 9.39487 17.0097 0 
202 1 0.416907 79.5 9.85017 16.951 0 
106 1 0.418321 79.5 10.1194 17.3134 0 
39 1 0.417739 79.5 10.2954 16.9004 0 
40 1 0.417655 79.5 10.5584 17.2659 0 
214 1 0.375802 79.5 10.965 17.2748 0 
207 1 0.375123 79.5 11.1376 16.8915 0 
299 1 0.376562 79.5 11.5351 16.9732 0 
46 1 0.377328 79.5 11.3602 17.307 0 
153 1 0.418903 79.5 11.9266 17.1747 0 
237 1 0.377021 79.5 12.3976 17.2152 0 
269 1 0.377027 79.5 12.8815 17.2856 0 
105 1 0.378261 79.5 13.6412 16.8898 0 
35 1 0.375085 79.5 13.3359 17.3034 0 
43 1 0.416658 79.5 14.1792 16.9692 0 
167 1 0.376423 79.5 13.816 17.3167 0 
244 1 0.377185 79.5 14.739 17.0978 0 
182 1 0.376421 79.5 15.2638 17.311 0 
90 1 0.418215 79.5 4.49484 17.3939 0 
7 1 0.376836 79.5 5.09463 17.4642 0 
1 1 0.416656 79.5 5.63422 17.5514 0 
219 1 0.416465 79.5 6.15525 17.6379 0 
232 1 0.41966 79.5 6.64716 17.7125 0 
25 1 0.418251 79.5 7.00451 17.3693 0 
170 1 0.419066 79.5 7.48504 17.4747 0 
294 1 0.420196 79.5 7.99592 17.4833 0 
224 1 0.417151 79.5 8.38109 17.7379 0 
168 1 0.377281 79.5 8.81383 17.5517 0 
99 1 0.418162 79.5 9.15858 17.7714 0 
143 1 0.378123 79.5 9.26876 17.3922 0 
125 1 0.417497 79.5 9.68803 17.3613 0 
51 1 0.378133 79.5 9.56764 17.7465 0 
228 1 0.377094 79.5 9.96896 17.7065 0 
198 1 0.418579 79.5 10.3985 17.6564 0 
151 1 0.377236 79.5 10.8055 17.6567 0 
65 1 0.375901 79.5 11.1996 17.657 0 
119 1 0.418318 79.5 11.6825 17.5633 0 
10 1 0.377297 79.5 12.1358 17.5716 0 
23 1 0.377532 79.5 12.5779 17.5936 0 
240 1 0.417923 79.5 13.0842 17.7281 0 
297 1 0.418019 79.5 13.5494 17.736 0 
241 1 0.375449 79.5 14.0155 17.7246 0 
158 1 0.378408 79.5 14.3855 17.4504 0 
130 1 0.41741 79.5 14.8604 17.7167 0 
254 1 0.418928 79.5 4.66765 17.9649 0 
265 1 0.4186 79.5 5.24717 17.9796 0 
183 1 0.418934 79.5 5.80289 18.0315 0 
243 1 0.376024 79.5 6.30195 18.1001 0 
157 1 0.417922 79.5 6.75766 18.1619 0 
189 1 0.374207 79.5 7.12062 17.7994 0 
217 1 0.420187 79.5 7.21076 18.2213 0 
117 1 0.376414 79.5 7.56184 17.8785 0 
177 1 0.417786 79.5 7.98608 17.9308 0 
210 1 0.417016 79.5 8.41085 18.2051 0 
201 1 0.37868 79.5 8.7349 17.9483 0 
222 1 0.376423 79.5 9.05342 18.1502 0 
280 1 0.376116 79.5 9.43809 18.1125 0 
287 1 0.378509 79.5 9.82111 18.0779 0 
102 1 0.419434 79.5 10.2338 18.0391 0 
22 1 0.376996 79.5 10.6436 18.0283 0 
233 1 0.376541 79.5 11.0332 18.021 0 
164 1 0.419166 79.5 11.4678 17.9664 0 
242 1 0.419369 79.5 11.9062 17.9532 0 
31 1 0.376295 79.5 12.3225 17.9633 0 
208 1 0.376279 79.5 12.7351 17.9696 0 
115 1 0.377962 79.5 13.3763 18.1659 0 
185 1 0.37559 79.5 13.8413 18.1373 0 
286 1 0.417076 79.5 14.3942 18.0027 0 
179 1 0.419049 79.5 15.1567 18.1952 0 
173 1 0.377039 79.5 15.5742 17.8308 0 
263 1 0.375892 79.5 4.30406 18.4654 0 
4 1 0.418796 79.5 4.9068 18.4866 0 
148 1 0.418606 79.5 5.47959 18.4505 0 
260 1 0.417822 79.5 6.00764 18.4872 0 
245 1 0.376779 79.5 6.48128 18.5445 0 
200 1 0.417021 79.5 6.93524 18.6019 0 
186 1 0.417704 79.5 7.38754 18.6602 0 
188 1 0.417316 79.5 7.64253 18.2896 0 
97 1 0.377275 79.5 8.03966 18.3432 0 
213 1 0.418946 79.5 8.76827 18.4215 0 
132 1 0.378247 79.5 9.25193 18.4661 0 
261 1 0.377169 79.5 9.64401 18.4438 0 
178 1 0.415965 79.5 10.0548 18.4137 0 
58 1 0.415805 79.5 10.4742 18.4012 0 
155 1 0.37768 79.5 10.8724 18.3876 0 
190 1 0.417687 79.5 11.2822 18.3603 0 
268 1 0.418081 79.5 11.7106 18.3506 0 
80 1 0.376209 79.5 12.124 18.3465 0 
181 1 0.377496 79.5 12.5385 18.3398 0 
79 1 0.376387 79.5 12.9743 18.2887 0 
221 1 0.419252 79.5 13.2349 18.6349 0 
24 1 0.416559 79.5 13.6857 18.5716 0 
29 1 0.417393 79.5 14.1697 18.4877 0 
160 1 0.418475 79.5 14.6787 18.4106 0 
107 1 0.375813 79.5 15.5501 18.5894 0 
84 1 0.417941 79.5 4.55642 18.9929 0 
298 1 0.374614 79.5 5.22243 18.891 0 
212 1 0.41762 79.5 5.72737 18.9083 0 
199 1 0.417759 79.5 6.21772 18.9373 0 
122 1 0.41785 79.5 6.68765 18.9864 0 
42 1 0.418538 79.5 7.14795 19.0331 0 
163 1 0.376966 79.5 7.59839 19.0574 0 
184 1 0.417741 79.5 7.82897 18.7107 0 
129 1 0.417621 79.5 8.26837 18.6748 0 
63 1 0.377654 79.5 8.04341 19.0658 0 
15 1 0.377305 79.5 8.43223 19.1098 0 
75 1 0.376447 79.5 8.64299 18.7927 0 
108 1 0.37715 79.5 9.03836 18.7747 0 
68 1 0.37735 79.5 9.4452 18.7882 0 
262 1 0.418034 79.5 9.85972 18.7777 0 
92 1 0.417624 79.5 10.2765 18.7766 0 
216 1 0.376432 79.5 10.5 19.1105 0 
276 1 0.417911 79.5 10.6918 18.7626 0 
89 1 0.376485 79.5 10.9114 19.1051 0 
192 1 0.418338 79.5 11.1069 18.7465 0 
229 1 0.41843 79.5 11.5243 18.7417 0 
283 1 0.377483 79.5 11.3147 19.1052 0 
9 1 0.378113 79.5 11.9297 18.7311 0 
230 1 0.376846 79.5 11.7241 19.1039 0 
255 1 0.419607 79.5 12.3467 18.7229 0 
101 1 0.376457 79.5 12.1326 19.0919 0 
274 1 0.37582 79.5 12.7815 18.6888 0 
272 1 0.378957 79.5 12.5763 19.0785 0 
127 1 0.417806 79.5 13.0285 19.0486 0 
17 1 0.37517 79.5 13.4953 19.0125 0 
266 1 0.376034 79.5 13.9616 18.9539 0 
174 1 0.419338 79.5 14.4599 18.9015 0 
191 1 0.419678 79.5 15.0118 18.8021 0 
146 1 0.418691 79.5 15.9164 19.0637 0 
258 1 0.419432 79.5 4.16171 19.4868 0 
120 1 0.378184 79.5 4.98431 19.3027 0 
33 1 0.378072 79.5 5.48864 19.3268 0 
71 1 0.377916 79.5 5.97488 19.3473 0 
166 1 0.418977 79.5 6.44023 19.3784 0 
252 1 0.378093 79.5 6.90888 19.4019 0 
301 1 0.41979 79.5 7.36898 19.4259 0 
218 1 0.418811 79.5 7.81039 19.4226 0 
38 1 0.377736 79.5 8.23581 19.4408 0 
59 1 0.419658 79.5 8.85213 19.1268 0 
87 1 0.377593 79.5 8.64952 19.4665 0 
140 1 0.378892 79.5 9.24996 19.1255 0 
118 1 0.41851 79.5 9.06536 19.4842 0 
94 1 0.419162 79.5 9.64579 19.1283 0 
12 1 0.37772 79.5 9.46122 19.477 0 
121 1 0.418093 79.5 9.88084 19.4621 0 
69 1 0.376926 79.5 10.0774 19.1187 0 
296 1 0.418792 79.5 10.2962 19.4499 0 
293 1 0.417075 79.5 10.7123 19.4472 0 
209 1 0.419672 79.5 11.1267 19.4645 0 
41 1 0.375472 79.5 11.5238 19.4495 0 
302 1 0.377055 79.5 11.9334 19.4499 0 
49 1 0.419815 79.5 12.3581 19.4503 0 
165 1 0.417616 79.5 12.8122 19.4487 0 
45 1 0.41618 79.5 13.2815 19.4279 0 
282 1 0.416306 79.5 13.7577 19.3872 0 
30 1 0.376677 79.5 14.2334 19.343 0 
176 1 0.376448 79.5 14.7561 19.2914 0 
171 1 0.417726 79.5 15.3269 19.2183 0 
169 1 0.378453 79.5 4.68882 19.6993 0 
50 1 0.378881 79.5 5.22633 19.7405 0 
123 1 0.416947 79.5 5.73082 19.7525 0 
135 1 0.377153 79.5 6.20611 19.7759 0 
21 1 0.420824 79.5 6.67434 19.7853 0 
161 1 0.416955 79.5 7.13914 19.7936 0 
32 1 0.375477 79.5 7.5866 19.8125 0 
194 1 0.416887 79.5 8.01187 19.7977 0 
145 1 0.419666 79.5 8.43968 19.8014 0 
8 1 0.378024 79.5 8.85755 19.8205 0 
27 1 0.375782 79.5 9.26994 19.8225 0 
47 1 0.418289 79.5 9.66702 19.8128 0 
253 1 0.415824 79.5 10.0929 19.8125 0 
133 1 0.418748 79.5 10.5082 19.8073 0 
285 1 0.37676 79.5 10.9078 19.8177 0 
284 1 0.376238 79.5 11.3069 19.8185 0 
26 1 0.417817 79.5 11.7189 19.799 0 
11 1 0.377588 79.5 12.1438 19.8141 0 
288 1 0.377512 79.5 12.5812 19.8138 0 
220 1 0.375738 79.5 13.0422 19.8122 0 
114 1 0.376368 79.5 13.5175 19.7978 0 
3 1 0.376593 79.5 13.9995 19.7747 0 
83 1 0.419111 79.5 14.5069 19.7374 0 
267 1 0.418107 79.5 15.0598 19.7063 0 
238 1 0.417818 79.5 15.6796 19.6572 0 
