# LAMMPS data file for rigid bodies

303 atoms

1 atom types

0.0 	 20.0 	 xlo xhi 
0.0 	 20.0 	 ylo yhi 
-1.0 	 1.0 	 zlo zhi 

Atoms

290 1 0.417552 79.5 9.63941 13.627 0 
142 1 0.376502 79.5 10.3309 13.4907 0 
159 1 0.418141 79.5 11.0721 13.4441 0 
187 1 0.376835 79.5 7.59952 14.191 0 
116 1 0.418074 79.5 8.15046 13.819 0 
141 1 0.417537 79.5 8.60511 14.1938 0 
248 1 0.417624 79.5 9.05924 13.8372 0 
206 1 0.377502 79.5 9.51559 14.218 0 
138 1 0.417163 79.5 10.1035 14.0178 0 
77 1 0.416408 79.5 10.7387 13.9377 0 
82 1 0.37548 79.5 11.352 13.9794 0 
5 1 0.417956 79.5 11.9679 13.8789 0 
34 1 0.376733 79.5 7.13094 14.5332 0 
156 1 0.41736 79.5 8.09493 14.4685 0 
137 1 0.377547 79.5 9.05094 14.4825 0 
215 1 0.417318 79.5 9.96262 14.533 0 
246 1 0.419558 79.5 10.5264 14.4263 0 
28 1 0.376324 79.5 11.0796 14.4254 0 
95 1 0.378511 79.5 11.6973 14.4019 0 
139 1 0.377813 79.5 12.3204 14.3825 0 
277 1 0.378085 79.5 13.0144 14.6475 0 
211 1 0.376915 79.5 6.68423 14.8759 0 
78 1 0.376793 79.5 7.62722 14.7938 0 
300 1 0.417817 79.5 8.11416 15.0259 0 
154 1 0.377463 79.5 8.5645 14.7451 0 
172 1 0.377906 79.5 8.97875 14.9884 0 
37 1 0.376521 79.5 9.46774 14.7457 0 
55 1 0.377258 79.5 9.86723 15.015 0 
225 1 0.418808 79.5 10.3725 14.9028 0 
131 1 0.37743 79.5 10.8808 14.8761 0 
104 1 0.417492 79.5 11.413 14.8428 0 
60 1 0.378985 79.5 11.9651 14.8456 0 
195 1 0.376076 79.5 12.5159 14.881 0 
19 1 0.377048 79.5 13.7311 15.0625 0 
279 1 0.419009 79.5 6.20466 15.194 0 
249 1 0.37714 79.5 6.74531 15.4528 0 
76 1 0.376361 79.5 7.18007 15.116 0 
271 1 0.419038 79.5 7.66056 15.3312 0 
227 1 0.419731 79.5 8.1283 15.5537 0 
235 1 0.417949 79.5 8.57754 15.2777 0 
91 1 0.375891 79.5 8.99325 15.5384 0 
74 1 0.418792 79.5 9.36842 15.2323 0 
226 1 0.418002 79.5 9.76947 15.4705 0 
250 1 0.419005 79.5 10.2349 15.3657 0 
96 1 0.375974 79.5 10.7032 15.3122 0 
270 1 0.377661 79.5 11.1805 15.2824 0 
239 1 0.376202 79.5 11.6836 15.2818 0 
109 1 0.416555 79.5 12.1924 15.3093 0 
81 1 0.377631 79.5 12.705 15.3541 0 
205 1 0.417837 79.5 13.1931 15.2132 0 
16 1 0.418857 79.5 14.1382 15.5325 0 
292 1 0.419322 79.5 5.73945 15.5831 0 
61 1 0.416969 79.5 6.32478 15.8008 0 
103 1 0.376732 79.5 6.82352 15.9891 0 
56 1 0.417661 79.5 7.22879 15.6528 0 
150 1 0.42017 79.5 7.71506 15.8603 0 
231 1 0.418206 79.5 8.56492 15.7856 0 
128 1 0.417636 79.5 9.41735 15.7561 0 
14 1 0.378044 79.5 10.0359 15.8094 0 
144 1 0.417225 79.5 10.4965 15.7659 0 
149 1 0.420339 79.5 10.9583 15.7175 0 
20 1 0.418644 79.5 11.4415 15.7019 0 
72 1 0.418442 79.5 11.936 15.7456 0 
86 1 0.418347 79.5 12.4525 15.7859 0 
295 1 0.376364 79.5 12.9869 15.7775 0 
6 1 0.41784 79.5 13.5328 15.6808 0 
180 1 0.4178 79.5 5.31137 16.0391 0 
251 1 0.418401 79.5 5.9013 16.1715 0 
147 1 0.378206 79.5 6.43742 16.3384 0 
62 1 0.419478 79.5 7.30528 16.1673 0 
273 1 0.375407 79.5 7.7694 16.346 0 
36 1 0.41802 79.5 8.17421 16.0701 0 
44 1 0.376441 79.5 8.61559 16.2877 0 
113 1 0.376209 79.5 8.95261 16.0053 0 
247 1 0.417974 79.5 9.33278 16.1909 0 
53 1 0.418687 79.5 9.78027 16.1545 0 
259 1 0.416952 79.5 10.2684 16.1881 0 
234 1 0.376567 79.5 10.7242 16.1602 0 
18 1 0.417229 79.5 11.1782 16.1347 0 
278 1 0.377425 79.5 11.6419 16.1285 0 
289 1 0.377045 79.5 12.1364 16.1841 0 
303 1 0.377701 79.5 12.5966 16.2372 0 
193 1 0.377638 79.5 13.0442 16.2422 0 
98 1 0.376685 79.5 13.5091 16.1994 0 
57 1 0.417312 79.5 14.0271 16.1107 0 
236 1 0.417091 79.5 14.6327 16.0253 0 
257 1 0.417584 79.5 4.84812 16.4762 0 
264 1 0.375728 79.5 5.4903 16.6007 0 
100 1 0.41738 79.5 6.02729 16.6937 0 
7 1 0.376836 79.5 6.52847 16.8237 0 
223 1 0.377582 79.5 6.91285 16.4716 0 
111 1 0.377387 79.5 7.39232 16.6341 0 
85 1 0.378114 79.5 7.83301 16.7905 0 
52 1 0.417492 79.5 8.20961 16.541 0 
64 1 0.37804 79.5 8.61699 16.7283 0 
196 1 0.417674 79.5 9.03631 16.5185 0 
48 1 0.417895 79.5 9.54572 16.5719 0 
93 1 0.375858 79.5 10.0203 16.5448 0 
275 1 0.375236 79.5 10.5 16.5493 0 
207 1 0.375123 79.5 10.9299 16.5361 0 
214 1 0.375802 79.5 11.3736 16.5286 0 
153 1 0.418903 79.5 11.8377 16.5253 0 
2 1 0.418632 79.5 12.3494 16.6395 0 
110 1 0.376982 79.5 12.8157 16.6715 0 
112 1 0.37724 79.5 13.2864 16.6518 0 
126 1 0.377564 79.5 13.8048 16.6117 0 
203 1 0.418748 79.5 14.3768 16.5865 0 
256 1 0.417029 79.5 14.9851 16.6145 0 
254 1 0.418928 79.5 5.06316 17.0167 0 
136 1 0.377551 79.5 5.62741 17.1032 0 
25 1 0.418251 79.5 6.14404 17.1898 0 
124 1 0.377489 79.5 6.62228 17.2903 0 
54 1 0.417762 79.5 6.99978 16.9302 0 
88 1 0.377633 79.5 7.45774 17.0725 0 
13 1 0.376492 79.5 7.88 17.2043 0 
197 1 0.418138 79.5 8.29166 17.0128 0 
177 1 0.417786 79.5 8.69467 17.2818 0 
152 1 0.419353 79.5 8.96698 16.9542 0 
67 1 0.375259 79.5 9.37397 16.9497 0 
204 1 0.417908 79.5 9.60112 17.3077 0 
281 1 0.419313 79.5 9.81876 16.9247 0 
99 1 0.418162 79.5 10.0551 17.2989 0 
73 1 0.418056 79.5 10.2726 16.9116 0 
143 1 0.378123 79.5 10.4883 17.2931 0 
299 1 0.376562 79.5 10.706 16.9163 0 
39 1 0.417739 79.5 10.9033 17.2934 0 
134 1 0.377548 79.5 11.1312 16.9011 0 
119 1 0.418318 79.5 11.3341 17.2824 0 
10 1 0.377297 79.5 11.5673 16.9021 0 
242 1 0.419369 79.5 11.783 17.2858 0 
269 1 0.377027 79.5 12.0167 16.9172 0 
31 1 0.376295 79.5 12.223 17.265 0 
237 1 0.377021 79.5 12.5846 17.0711 0 
35 1 0.375085 79.5 13.0406 17.0743 0 
291 1 0.418671 79.5 13.5448 17.0491 0 
43 1 0.416658 79.5 14.0944 17.0475 0 
105 1 0.378261 79.5 14.6705 17.1133 0 
66 1 0.417743 79.5 15.3184 17.1885 0 
70 1 0.418537 79.5 4.57805 17.4339 0 
1 1 0.416656 79.5 5.22993 17.535 0 
219 1 0.416465 79.5 5.77832 17.5897 0 
157 1 0.417922 79.5 6.28639 17.6715 0 
162 1 0.417925 79.5 6.76325 17.759 0 
170 1 0.419066 79.5 7.07642 17.3926 0 
175 1 0.375285 79.5 7.50324 17.4995 0 
189 1 0.374207 79.5 7.88119 17.6139 0 
224 1 0.417151 79.5 8.26311 17.4624 0 
210 1 0.417016 79.5 8.60172 17.7079 0 
168 1 0.377281 79.5 9.16204 17.3337 0 
51 1 0.378133 79.5 9.00754 17.693 0 
125 1 0.417497 79.5 9.42526 17.6916 0 
202 1 0.416907 79.5 9.85532 17.6806 0 
40 1 0.417655 79.5 10.2951 17.6655 0 
46 1 0.377328 79.5 10.7099 17.6697 0 
233 1 0.376541 79.5 11.115 17.6718 0 
268 1 0.418081 79.5 11.5484 17.6656 0 
151 1 0.377236 79.5 11.9917 17.6625 0 
181 1 0.377496 79.5 12.4093 17.6103 0 
23 1 0.377532 79.5 12.8104 17.476 0 
115 1 0.377962 79.5 13.2801 17.4577 0 
167 1 0.376423 79.5 13.7914 17.4505 0 
244 1 0.377185 79.5 14.3371 17.4954 0 
158 1 0.378408 79.5 14.9508 17.6144 0 
90 1 0.418215 79.5 4.84817 17.9646 0 
265 1 0.4186 79.5 5.45469 18.0181 0 
183 1 0.418934 79.5 5.97078 18.0739 0 
260 1 0.417822 79.5 6.46956 18.1401 0 
232 1 0.41966 79.5 6.94683 18.2218 0 
294 1 0.420196 79.5 7.22695 17.8545 0 
117 1 0.376414 79.5 7.65125 17.9456 0 
188 1 0.417316 79.5 8.11694 17.9456 0 
75 1 0.376447 79.5 8.48782 18.0873 0 
222 1 0.376423 79.5 8.86522 18.0726 0 
213 1 0.418946 79.5 9.26063 18.0756 0 
198 1 0.418579 79.5 9.67713 18.072 0 
102 1 0.419434 79.5 10.0935 18.0466 0 
106 1 0.418321 79.5 10.5164 18.0408 0 
280 1 0.376116 79.5 10.9183 18.0336 0 
190 1 0.417687 79.5 11.3315 18.0411 0 
164 1 0.419166 79.5 11.7709 18.0441 0 
65 1 0.375901 79.5 12.1934 18.0236 0 
255 1 0.419607 79.5 12.6215 17.963 0 
240 1 0.417923 79.5 13.0618 17.8757 0 
297 1 0.418019 79.5 13.5339 17.8563 0 
182 1 0.376421 79.5 14.0163 17.8483 0 
130 1 0.41741 79.5 14.5692 17.9484 0 
179 1 0.419049 79.5 15.5284 17.9019 0 
263 1 0.375892 79.5 4.52681 18.4213 0 
4 1 0.418796 79.5 5.15341 18.437 0 
298 1 0.374614 79.5 5.68842 18.4846 0 
200 1 0.417021 79.5 6.18508 18.5287 0 
186 1 0.417704 79.5 6.67267 18.59 0 
243 1 0.376024 79.5 7.39073 18.2886 0 
201 1 0.37868 79.5 7.14509 18.6436 0 
217 1 0.420187 79.5 7.83527 18.3234 0 
184 1 0.417741 79.5 8.24996 18.4044 0 
108 1 0.37715 79.5 8.68485 18.4322 0 
132 1 0.378247 79.5 9.08271 18.4349 0 
228 1 0.377094 79.5 9.49112 18.4341 0 
287 1 0.378509 79.5 9.89281 18.4273 0 
178 1 0.415965 79.5 10.3012 18.4082 0 
22 1 0.376996 79.5 10.723 18.3965 0 
229 1 0.41843 79.5 11.1225 18.4084 0 
155 1 0.37768 79.5 11.5512 18.4081 0 
9 1 0.378113 79.5 11.9774 18.4066 0 
80 1 0.376209 79.5 12.4006 18.3746 0 
24 1 0.416559 79.5 12.8484 18.3358 0 
208 1 0.376279 79.5 13.2926 18.2815 0 
241 1 0.375449 79.5 13.7356 18.2694 0 
185 1 0.37559 79.5 14.1915 18.2536 0 
79 1 0.376387 79.5 14.0056 18.6462 0 
107 1 0.375813 79.5 14.577 18.4831 0 
286 1 0.417076 79.5 15.0466 18.2335 0 
173 1 0.377039 79.5 15.4642 18.6128 0 
84 1 0.417941 79.5 4.19972 18.922 0 
169 1 0.378453 79.5 4.87909 18.8569 0 
120 1 0.378184 79.5 5.42239 18.8881 0 
212 1 0.41762 79.5 5.92072 18.9304 0 
148 1 0.418606 79.5 6.40458 18.9776 0 
166 1 0.418977 79.5 6.89253 19.0034 0 
63 1 0.377654 79.5 7.35073 19.0436 0 
42 1 0.418538 79.5 7.58621 18.6865 0 
129 1 0.417621 79.5 7.79899 19.0806 0 
163 1 0.376966 79.5 8.02445 18.7441 0 
59 1 0.419658 79.5 8.45655 18.7794 0 
97 1 0.377275 79.5 8.87194 18.7695 0 
140 1 0.378892 79.5 9.28599 18.7617 0 
261 1 0.377169 79.5 9.69872 18.7618 0 
121 1 0.418093 79.5 9.49185 19.1017 0 
68 1 0.37735 79.5 10.1079 18.7593 0 
92 1 0.417624 79.5 9.90741 19.1025 0 
262 1 0.418034 79.5 10.5385 18.748 0 
192 1 0.418338 79.5 10.3224 19.0992 0 
230 1 0.376846 79.5 10.9339 18.7709 0 
58 1 0.415805 79.5 11.3436 18.7706 0 
302 1 0.377055 79.5 11.76 18.7522 0 
165 1 0.417616 79.5 11.9731 19.097 0 
101 1 0.376457 79.5 12.1965 18.7441 0 
17 1 0.37517 79.5 12.4137 19.0959 0 
272 1 0.378957 79.5 12.6221 18.7252 0 
127 1 0.417806 79.5 12.8551 19.089 0 
29 1 0.417393 79.5 13.0916 18.7056 0 
266 1 0.376034 79.5 13.3319 19.0765 0 
274 1 0.37582 79.5 13.5382 18.6733 0 
221 1 0.419252 79.5 13.8158 19.0502 0 
160 1 0.418475 79.5 14.3763 18.9322 0 
191 1 0.419678 79.5 14.9285 18.8258 0 
146 1 0.418691 79.5 15.852 19.0754 0 
71 1 0.377916 79.5 4.64129 19.2912 0 
33 1 0.378072 79.5 5.17019 19.2992 0 
199 1 0.417759 79.5 5.68168 19.3423 0 
245 1 0.376779 79.5 6.16519 19.3787 0 
122 1 0.41785 79.5 6.63172 19.3931 0 
301 1 0.41979 79.5 7.11052 19.4049 0 
194 1 0.416887 79.5 7.57055 19.4372 0 
218 1 0.418811 79.5 8.01896 19.4663 0 
15 1 0.377305 79.5 8.23404 19.1149 0 
12 1 0.37772 79.5 8.44498 19.4564 0 
69 1 0.376926 79.5 8.66004 19.1294 0 
87 1 0.377593 79.5 8.86738 19.4607 0 
118 1 0.41851 79.5 9.07053 19.1111 0 
296 1 0.418792 79.5 9.28825 19.465 0 
94 1 0.419162 79.5 9.70096 19.4641 0 
276 1 0.417911 79.5 10.1189 19.4624 0 
47 1 0.418289 79.5 10.5317 19.4559 0 
216 1 0.376432 79.5 10.7327 19.112 0 
284 1 0.376238 79.5 10.9306 19.4594 0 
283 1 0.377483 79.5 11.1247 19.1174 0 
209 1 0.419672 79.5 11.3307 19.4666 0 
41 1 0.375472 79.5 11.5445 19.1147 0 
26 1 0.417817 79.5 11.7571 19.4698 0 
49 1 0.419815 79.5 12.1992 19.4638 0 
288 1 0.377512 79.5 12.6335 19.4616 0 
45 1 0.41618 79.5 13.0977 19.4594 0 
282 1 0.416306 79.5 13.5866 19.4484 0 
174 1 0.419338 79.5 14.1578 19.3794 0 
176 1 0.376448 79.5 14.6803 19.3158 0 
238 1 0.417818 79.5 15.2564 19.228 0 
258 1 0.419432 79.5 4.21773 19.6301 0 
50 1 0.378881 79.5 4.88846 19.7269 0 
123 1 0.416947 79.5 5.41762 19.7482 0 
135 1 0.377153 79.5 5.93318 19.7695 0 
252 1 0.378093 79.5 6.39838 19.7847 0 
21 1 0.420824 79.5 6.87071 19.7906 0 
161 1 0.416955 79.5 7.34417 19.7961 0 
32 1 0.375477 79.5 7.79754 19.8155 0 
38 1 0.377736 79.5 8.23092 19.8159 0 
145 1 0.419666 79.5 8.64811 19.7995 0 
253 1 0.415824 79.5 9.07002 19.8097 0 
27 1 0.375782 79.5 9.49896 19.8197 0 
293 1 0.417075 79.5 9.9126 19.8164 0 
8 1 0.378024 79.5 10.3278 19.8196 0 
133 1 0.418748 79.5 10.7408 19.8085 0 
285 1 0.37676 79.5 11.1383 19.8181 0 
89 1 0.376485 79.5 11.543 19.8188 0 
220 1 0.375738 79.5 11.968 19.8178 0 
11 1 0.377588 79.5 12.4081 19.8153 0 
114 1 0.376368 79.5 12.8521 19.8133 0 
3 1 0.376593 79.5 13.3414 19.8126 0 
83 1 0.419111 79.5 13.8949 19.7809 0 
30 1 0.376677 79.5 14.436 19.7589 0 
171 1 0.417726 79.5 14.9825 19.713 0 
267 1 0.418107 79.5 15.6059 19.6621 0 
