# LAMMPS data file for rigid bodies

303 atoms

1 atom types

0.0 	 20.0 	 xlo xhi 
0.0 	 20.0 	 ylo yhi 
-1.0 	 1.0 	 zlo zhi 

Atoms

141 1 0.417537 79.5 8.85166 13.7543 0 
248 1 0.417624 79.5 9.50079 13.5471 0 
159 1 0.418141 79.5 10.2306 13.4801 0 
116 1 0.418074 79.5 7.48348 14.1298 0 
156 1 0.41736 79.5 8.17268 13.8839 0 
290 1 0.417552 79.5 9.59359 14.1176 0 
142 1 0.376502 79.5 10.1161 14.0432 0 
77 1 0.416408 79.5 10.6796 13.9083 0 
82 1 0.37548 79.5 11.2529 13.8464 0 
139 1 0.377813 79.5 11.8467 13.8479 0 
271 1 0.419038 79.5 8.00946 14.4872 0 
300 1 0.417817 79.5 8.55739 14.3485 0 
154 1 0.377463 79.5 9.08378 14.264 0 
235 1 0.417949 79.5 9.43895 14.6469 0 
137 1 0.377547 79.5 9.94716 14.5666 0 
138 1 0.417163 79.5 10.4592 14.4567 0 
246 1 0.419558 79.5 11.0053 14.3904 0 
104 1 0.417492 79.5 11.5504 14.3798 0 
5 1 0.417956 79.5 12.1156 14.3658 0 
95 1 0.378511 79.5 12.684 14.3182 0 
34 1 0.376733 79.5 6.4176 14.9299 0 
211 1 0.376915 79.5 6.96583 14.7302 0 
78 1 0.376793 79.5 7.50567 14.7059 0 
76 1 0.376361 79.5 7.89778 15.0409 0 
249 1 0.37714 79.5 8.38893 14.8807 0 
172 1 0.377906 79.5 8.90514 14.7611 0 
37 1 0.376521 79.5 9.76394 15.0376 0 
206 1 0.377502 79.5 10.2696 14.9497 0 
215 1 0.417318 79.5 10.7772 14.8839 0 
270 1 0.377661 79.5 11.2978 14.859 0 
131 1 0.37743 79.5 11.8227 14.8551 0 
28 1 0.376324 79.5 12.3463 14.861 0 
195 1 0.376076 79.5 12.8766 14.8374 0 
205 1 0.417837 79.5 13.4455 14.7123 0 
292 1 0.419322 79.5 5.82752 15.1948 0 
61 1 0.416969 79.5 6.29961 15.5523 0 
279 1 0.419009 79.5 6.82936 15.3273 0 
187 1 0.376835 79.5 7.34517 15.1886 0 
56 1 0.417661 79.5 7.72361 15.5202 0 
103 1 0.376732 79.5 8.24807 15.3799 0 
231 1 0.418206 79.5 8.7356 15.2407 0 
227 1 0.419731 79.5 9.25986 15.1244 0 
55 1 0.377258 79.5 9.58353 15.4865 0 
225 1 0.418808 79.5 10.0821 15.3945 0 
96 1 0.375974 79.5 10.5774 15.337 0 
149 1 0.420339 79.5 11.0693 15.314 0 
109 1 0.416555 79.5 11.5807 15.2934 0 
81 1 0.377631 79.5 12.0992 15.2979 0 
60 1 0.378985 79.5 12.6283 15.3026 0 
57 1 0.417312 79.5 13.1878 15.2985 0 
277 1 0.378085 79.5 13.7702 15.2525 0 
180 1 0.4178 79.5 5.63681 15.8066 0 
147 1 0.378206 79.5 6.73618 15.8828 0 
251 1 0.418401 79.5 7.22127 15.7127 0 
150 1 0.42017 79.5 8.09161 15.8456 0 
91 1 0.375891 79.5 8.58761 15.7109 0 
74 1 0.418792 79.5 9.088 15.5861 0 
226 1 0.418002 79.5 9.42039 15.932 0 
250 1 0.419005 79.5 9.90249 15.8378 0 
144 1 0.417225 79.5 10.4059 15.767 0 
234 1 0.376567 79.5 10.8703 15.7435 0 
239 1 0.376202 79.5 11.3514 15.7237 0 
86 1 0.418347 79.5 11.8513 15.7253 0 
6 1 0.41784 79.5 12.373 15.7312 0 
295 1 0.376364 79.5 12.8882 15.7481 0 
98 1 0.376685 79.5 13.4278 15.7728 0 
16 1 0.418857 79.5 13.9727 15.7808 0 
19 1 0.377048 79.5 14.5565 15.8013 0 
264 1 0.375728 79.5 5.71023 16.3604 0 
100 1 0.41738 79.5 6.19565 16.0924 0 
54 1 0.417762 79.5 6.6566 16.3784 0 
223 1 0.377582 79.5 7.13106 16.2245 0 
62 1 0.419478 79.5 7.60944 16.0409 0 
273 1 0.375407 79.5 7.98167 16.3258 0 
36 1 0.41802 79.5 8.43653 16.1662 0 
128 1 0.417636 79.5 8.92541 16.0333 0 
14 1 0.378044 79.5 9.24911 16.35 0 
93 1 0.375858 79.5 9.73105 16.2573 0 
18 1 0.417229 79.5 10.2168 16.1885 0 
275 1 0.375236 79.5 10.6775 16.1562 0 
20 1 0.418644 79.5 11.1401 16.1305 0 
303 1 0.377701 79.5 11.614 16.1221 0 
193 1 0.377638 79.5 12.1181 16.1338 0 
110 1 0.376982 79.5 12.6182 16.1626 0 
203 1 0.418748 79.5 13.1351 16.1905 0 
112 1 0.37724 79.5 13.6633 16.2524 0 
256 1 0.417029 79.5 14.2292 16.303 0 
236 1 0.417091 79.5 14.8513 16.3854 0 
70 1 0.418537 79.5 5.09352 16.4481 0 
254 1 0.418928 79.5 5.53763 16.8578 0 
257 1 0.417584 79.5 6.16928 16.6454 0 
88 1 0.377633 79.5 6.62667 16.8562 0 
85 1 0.378114 79.5 7.05936 16.7168 0 
111 1 0.377387 79.5 7.49491 16.5121 0 
52 1 0.417492 79.5 7.86525 16.7649 0 
113 1 0.376209 79.5 8.32072 16.6229 0 
247 1 0.417974 79.5 8.7739 16.4748 0 
259 1 0.416952 79.5 9.09867 16.7738 0 
53 1 0.418687 79.5 9.55907 16.6546 0 
73 1 0.418056 79.5 10.0312 16.589 0 
299 1 0.376562 79.5 10.4973 16.5488 0 
207 1 0.375123 79.5 10.9355 16.5242 0 
214 1 0.375802 79.5 11.3999 16.5118 0 
72 1 0.418442 79.5 11.8679 16.5092 0 
289 1 0.377045 79.5 12.3599 16.5338 0 
35 1 0.375085 79.5 12.8529 16.58 0 
126 1 0.377564 79.5 13.3554 16.643 0 
105 1 0.378261 79.5 13.89 16.7104 0 
66 1 0.417743 79.5 14.4477 16.8319 0 
1 1 0.416656 79.5 5.02961 17.1291 0 
7 1 0.376836 79.5 5.98439 17.1001 0 
136 1 0.377551 79.5 6.42773 17.2452 0 
232 1 0.41966 79.5 6.92595 17.2405 0 
124 1 0.377489 79.5 7.40962 16.977 0 
196 1 0.417674 79.5 7.79915 17.2213 0 
13 1 0.376492 79.5 8.21722 17.0501 0 
44 1 0.376441 79.5 8.6489 16.9029 0 
48 1 0.417895 79.5 8.54228 17.3257 0 
67 1 0.375259 79.5 8.96365 17.1853 0 
99 1 0.418162 79.5 9.41512 17.0779 0 
204 1 0.417908 79.5 9.85944 16.9963 0 
39 1 0.417739 79.5 10.3099 16.9459 0 
233 1 0.376541 79.5 10.5618 17.3124 0 
119 1 0.418318 79.5 10.7481 16.9215 0 
46 1 0.377328 79.5 10.9888 17.2847 0 
153 1 0.418903 79.5 11.1959 16.893 0 
242 1 0.419369 79.5 11.4347 17.2756 0 
278 1 0.377425 79.5 11.6486 16.8974 0 
237 1 0.377021 79.5 11.8738 17.2912 0 
2 1 0.418632 79.5 12.1074 16.9177 0 
167 1 0.376423 79.5 12.3224 17.3206 0 
291 1 0.418671 79.5 12.5875 16.9525 0 
182 1 0.376421 79.5 13.0657 17.0075 0 
43 1 0.416658 79.5 13.5749 17.0855 0 
244 1 0.377185 79.5 14.0679 17.1982 0 
130 1 0.41741 79.5 15.0831 16.9805 0 
90 1 0.418215 79.5 4.61005 17.5431 0 
25 1 0.418251 79.5 5.54985 17.4193 0 
219 1 0.416465 79.5 6.05874 17.5861 0 
294 1 0.420196 79.5 6.5627 17.6805 0 
175 1 0.375285 79.5 6.99871 17.742 0 
162 1 0.417925 79.5 7.35472 17.4275 0 
197 1 0.418138 79.5 7.76287 17.6706 0 
64 1 0.37804 79.5 8.16048 17.5074 0 
281 1 0.419313 79.5 8.84954 17.618 0 
202 1 0.416907 79.5 9.26644 17.4762 0 
134 1 0.377548 79.5 9.71335 17.3876 0 
125 1 0.417497 79.5 9.574 17.7605 0 
40 1 0.417655 79.5 10.1389 17.3493 0 
51 1 0.378133 79.5 9.97877 17.7274 0 
280 1 0.376116 79.5 10.3875 17.6923 0 
198 1 0.418579 79.5 10.7984 17.6637 0 
102 1 0.419434 79.5 11.2244 17.6589 0 
65 1 0.375901 79.5 11.6564 17.6559 0 
31 1 0.376295 79.5 12.0811 17.6653 0 
23 1 0.377532 79.5 12.7848 17.3702 0 
269 1 0.377027 79.5 12.5187 17.7063 0 
297 1 0.418019 79.5 13.2566 17.4465 0 
158 1 0.378408 79.5 13.7242 17.5721 0 
185 1 0.37559 79.5 14.2015 17.6595 0 
286 1 0.417076 79.5 14.6295 17.3586 0 
179 1 0.419049 79.5 15.2639 17.5802 0 
265 1 0.4186 79.5 4.4302 18.1214 0 
183 1 0.418934 79.5 5.16237 17.7918 0 
157 1 0.417922 79.5 5.70827 17.9546 0 
217 1 0.420187 79.5 6.22728 18.0569 0 
117 1 0.376414 79.5 6.71394 18.1266 0 
189 1 0.374207 79.5 7.13813 18.2118 0 
152 1 0.419353 79.5 7.40586 17.9009 0 
224 1 0.417151 79.5 8.06694 17.9681 0 
168 1 0.377281 79.5 8.46793 17.792 0 
132 1 0.378247 79.5 8.44361 18.1991 0 
222 1 0.376423 79.5 8.81926 18.0529 0 
228 1 0.377094 79.5 9.15662 17.8864 0 
143 1 0.378123 79.5 9.43835 18.1327 0 
287 1 0.378509 79.5 9.81677 18.1055 0 
262 1 0.418034 79.5 10.2109 18.0655 0 
178 1 0.415965 79.5 10.6268 18.0522 0 
151 1 0.377236 79.5 11.0258 18.0423 0 
268 1 0.418081 79.5 11.4376 18.0377 0 
255 1 0.419607 79.5 11.8599 18.0384 0 
181 1 0.377496 79.5 12.2756 18.0492 0 
240 1 0.417923 79.5 12.702 18.1238 0 
10 1 0.377297 79.5 12.9639 17.7888 0 
115 1 0.377962 79.5 13.384 17.9126 0 
208 1 0.376279 79.5 13.838 18.0292 0 
191 1 0.419678 79.5 14.3062 18.1257 0 
241 1 0.375449 79.5 14.7578 17.8655 0 
173 1 0.377039 79.5 15.2719 18.1663 0 
258 1 0.419432 79.5 4.06364 18.6668 0 
263 1 0.375892 79.5 4.97002 18.2738 0 
4 1 0.418796 79.5 5.45568 18.3838 0 
243 1 0.376024 79.5 5.94552 18.4511 0 
200 1 0.417021 79.5 6.41624 18.5055 0 
42 1 0.418538 79.5 6.88465 18.5709 0 
210 1 0.417016 79.5 7.35067 18.5882 0 
170 1 0.419066 79.5 7.67738 18.2438 0 
177 1 0.417786 79.5 8.10288 18.4015 0 
108 1 0.37715 79.5 8.7408 18.4311 0 
213 1 0.418946 79.5 9.13561 18.3839 0 
261 1 0.377169 79.5 9.63209 18.4509 0 
140 1 0.378892 79.5 10.0204 18.4495 0 
92 1 0.417624 79.5 10.4212 18.4255 0 
22 1 0.376996 79.5 10.8375 18.4079 0 
190 1 0.417687 79.5 11.2346 18.4152 0 
155 1 0.37768 79.5 11.6503 18.4178 0 
9 1 0.378113 79.5 12.0561 18.4178 0 
80 1 0.376209 79.5 12.4474 18.4411 0 
164 1 0.419166 79.5 12.8003 18.6631 0 
274 1 0.37582 79.5 13.0844 18.2752 0 
79 1 0.376387 79.5 13.5032 18.3425 0 
24 1 0.416559 79.5 13.8876 18.5355 0 
266 1 0.376034 79.5 14.3519 18.588 0 
107 1 0.375813 79.5 14.7802 18.3745 0 
146 1 0.418691 79.5 15.7213 18.5787 0 
84 1 0.417941 79.5 4.67336 18.7094 0 
298 1 0.374614 79.5 5.19222 18.8153 0 
260 1 0.417822 79.5 5.68216 18.8674 0 
120 1 0.378184 79.5 6.15102 18.9052 0 
148 1 0.418606 79.5 6.61365 18.9493 0 
245 1 0.376779 79.5 7.07078 18.9803 0 
186 1 0.417704 79.5 7.49654 19.0193 0 
97 1 0.377275 79.5 7.77031 18.6807 0 
188 1 0.417316 79.5 7.92357 19.1032 0 
163 1 0.376966 79.5 8.16665 18.7908 0 
201 1 0.37868 79.5 8.53927 18.7466 0 
129 1 0.417621 79.5 8.75453 19.1052 0 
75 1 0.376447 79.5 8.95989 18.7586 0 
184 1 0.417741 79.5 9.16938 19.1101 0 
59 1 0.419658 79.5 9.37203 18.7463 0 
69 1 0.376926 79.5 9.8093 18.7802 0 
68 1 0.37735 79.5 10.222 18.78 0 
192 1 0.418338 79.5 10.6606 18.7635 0 
276 1 0.417911 79.5 10.44 19.1111 0 
230 1 0.376846 79.5 11.0563 18.7836 0 
106 1 0.418321 79.5 11.4567 18.7876 0 
229 1 0.41843 79.5 11.8878 18.7862 0 
101 1 0.376457 79.5 12.3182 18.8028 0 
302 1 0.377055 79.5 12.6075 19.076 0 
272 1 0.378957 79.5 13.2471 18.681 0 
17 1 0.37517 79.5 13.0453 19.0451 0 
29 1 0.417393 79.5 13.5816 18.9536 0 
221 1 0.419252 79.5 14.084 18.9799 0 
176 1 0.376448 79.5 14.6332 18.9327 0 
160 1 0.418475 79.5 15.1282 18.7537 0 
71 1 0.377916 79.5 4.38804 19.1812 0 
123 1 0.416947 79.5 4.92281 19.248 0 
135 1 0.377153 79.5 5.42539 19.297 0 
252 1 0.378093 79.5 5.8905 19.3188 0 
199 1 0.417759 79.5 6.35023 19.3445 0 
122 1 0.41785 79.5 6.81944 19.3695 0 
166 1 0.418977 79.5 7.26318 19.4016 0 
218 1 0.418811 79.5 7.69344 19.4511 0 
63 1 0.377654 79.5 8.35844 19.1325 0 
38 1 0.377736 79.5 8.15495 19.456 0 
15 1 0.377305 79.5 8.59027 19.467 0 
87 1 0.377593 79.5 8.9794 19.4754 0 
118 1 0.41851 79.5 9.59102 19.112 0 
296 1 0.418792 79.5 9.37831 19.4679 0 
12 1 0.37772 79.5 9.80205 19.4694 0 
94 1 0.419162 79.5 10.0085 19.1201 0 
121 1 0.418093 79.5 10.2305 19.4653 0 
47 1 0.418289 79.5 10.6609 19.4628 0 
216 1 0.376432 79.5 10.859 19.1203 0 
89 1 0.376485 79.5 11.0567 19.4824 0 
283 1 0.377483 79.5 11.2459 19.146 0 
11 1 0.377588 79.5 11.4532 19.4958 0 
58 1 0.415805 79.5 11.6655 19.1563 0 
41 1 0.375472 79.5 11.883 19.4979 0 
127 1 0.417806 79.5 12.1134 19.1587 0 
209 1 0.419672 79.5 12.4028 19.46 0 
49 1 0.419815 79.5 12.8586 19.4428 0 
165 1 0.417616 79.5 13.33 19.3795 0 
174 1 0.419338 79.5 13.8195 19.3777 0 
282 1 0.416306 79.5 14.3762 19.3621 0 
30 1 0.376677 79.5 14.9129 19.3061 0 
238 1 0.417818 79.5 15.4828 19.1699 0 
212 1 0.41762 79.5 4.03865 19.6129 0 
169 1 0.378453 79.5 4.64171 19.6982 0 
33 1 0.378072 79.5 5.16312 19.7262 0 
50 1 0.378881 79.5 5.6399 19.7424 0 
21 1 0.420824 79.5 6.10784 19.7607 0 
301 1 0.41979 79.5 6.58551 19.7759 0 
161 1 0.416955 79.5 7.04942 19.7921 0 
32 1 0.375477 79.5 7.4884 19.8138 0 
194 1 0.416887 79.5 7.93355 19.7991 0 
145 1 0.419666 79.5 8.37552 19.8004 0 
27 1 0.375782 79.5 8.79745 19.8182 0 
8 1 0.378024 79.5 9.19132 19.8193 0 
253 1 0.415824 79.5 9.59997 19.8114 0 
293 1 0.417075 79.5 10.0132 19.811 0 
133 1 0.418748 79.5 10.4455 19.8147 0 
284 1 0.376238 79.5 10.8504 19.8196 0 
285 1 0.37676 79.5 11.2481 19.8199 0 
220 1 0.375738 79.5 11.6712 19.8194 0 
26 1 0.417817 79.5 12.1417 19.7984 0 
114 1 0.376368 79.5 12.6202 19.8148 0 
288 1 0.377512 79.5 13.0903 19.8029 0 
45 1 0.41618 79.5 13.5656 19.7816 0 
83 1 0.419111 79.5 14.0964 19.7663 0 
3 1 0.376593 79.5 14.6498 19.7513 0 
171 1 0.417726 79.5 15.221 19.701 0 
267 1 0.418107 79.5 15.8461 19.6146 0 
