# LAMMPS data file for rigid bodies

303 atoms

1 atom types

0.0 	 20.0 	 xlo xhi 
0.0 	 20.0 	 ylo yhi 
-1.0 	 1.0 	 zlo zhi 

Atoms

290 1 0.417552 79.5 8.6427 13.7309 0 
206 1 0.377502 79.5 9.23092 13.5986 0 
248 1 0.417624 79.5 9.82843 13.4658 0 
138 1 0.417163 79.5 10.5 13.3828 0 
116 1 0.418074 79.5 7.32278 14.1501 0 
141 1 0.417537 79.5 8.01351 13.8348 0 
137 1 0.377547 79.5 9.06047 14.1504 0 
235 1 0.417949 79.5 9.60621 14.0453 0 
225 1 0.418808 79.5 10.1935 13.9515 0 
159 1 0.418141 79.5 10.8005 13.8877 0 
142 1 0.376502 79.5 11.4007 13.8189 0 
5 1 0.417956 79.5 12.0495 14.1503 0 
156 1 0.41736 79.5 7.90806 14.4105 0 
154 1 0.377463 79.5 8.47559 14.2878 0 
300 1 0.417817 79.5 8.88587 14.6337 0 
172 1 0.377906 79.5 9.42737 14.5587 0 
215 1 0.417318 79.5 9.94615 14.4804 0 
246 1 0.419558 79.5 10.4836 14.4207 0 
77 1 0.416408 79.5 11.0202 14.3859 0 
28 1 0.376324 79.5 11.5377 14.3498 0 
139 1 0.377813 79.5 12.6477 14.2432 0 
211 1 0.376915 79.5 6.74369 14.7499 0 
187 1 0.376835 79.5 7.37651 14.7183 0 
78 1 0.376793 79.5 7.84423 14.9318 0 
271 1 0.419038 79.5 8.33958 14.8155 0 
231 1 0.418206 79.5 9.24926 15.023 0 
37 1 0.376521 79.5 9.75981 14.9557 0 
96 1 0.375974 79.5 10.2483 14.8967 0 
270 1 0.377661 79.5 10.7598 14.8496 0 
131 1 0.37743 79.5 11.2872 14.8254 0 
82 1 0.37548 79.5 11.8039 14.772 0 
195 1 0.376076 79.5 12.3232 14.7058 0 
277 1 0.378085 79.5 12.9784 14.7094 0 
16 1 0.418857 79.5 13.7074 15.0755 0 
292 1 0.419322 79.5 5.9667 15.553 0 
34 1 0.376733 79.5 6.50732 15.2978 0 
76 1 0.376361 79.5 7.12695 15.1559 0 
56 1 0.417661 79.5 7.61074 15.3573 0 
249 1 0.37714 79.5 8.14721 15.3268 0 
227 1 0.419731 79.5 8.73828 15.1277 0 
91 1 0.375891 79.5 9.07874 15.4853 0 
74 1 0.418792 79.5 9.57203 15.4017 0 
55 1 0.377258 79.5 10.0547 15.3474 0 
250 1 0.419005 79.5 10.5321 15.2888 0 
109 1 0.416555 79.5 11.0445 15.2531 0 
239 1 0.376202 79.5 11.5619 15.2294 0 
104 1 0.417492 79.5 12.0714 15.2049 0 
6 1 0.41784 79.5 12.6078 15.1686 0 
95 1 0.378511 79.5 13.1553 15.2152 0 
279 1 0.419009 79.5 6.46414 15.9077 0 
61 1 0.416969 79.5 6.95286 15.6167 0 
251 1 0.418401 79.5 7.4536 15.8179 0 
103 1 0.376732 79.5 7.95322 15.7734 0 
36 1 0.41802 79.5 8.36891 15.9957 0 
150 1 0.42017 79.5 8.54931 15.5653 0 
128 1 0.417636 79.5 8.89201 15.9056 0 
14 1 0.378044 79.5 9.3966 15.8215 0 
234 1 0.376567 79.5 9.87836 15.7677 0 
93 1 0.375858 79.5 10.3426 15.7267 0 
144 1 0.417225 79.5 10.8111 15.6927 0 
149 1 0.420339 79.5 11.3281 15.6562 0 
193 1 0.377638 79.5 11.8187 15.6459 0 
81 1 0.377631 79.5 12.3215 15.6353 0 
112 1 0.37724 79.5 12.8502 15.6355 0 
60 1 0.378985 79.5 13.3965 15.6713 0 
205 1 0.417837 79.5 13.9755 15.646 0 
19 1 0.377048 79.5 14.5527 15.8166 0 
70 1 0.418537 79.5 5.16235 16.0702 0 
180 1 0.4178 79.5 5.75465 16.1209 0 
147 1 0.378206 79.5 6.21237 16.3685 0 
62 1 0.419478 79.5 6.99087 16.1191 0 
85 1 0.378114 79.5 7.46754 16.2704 0 
273 1 0.375407 79.5 7.90878 16.2474 0 
44 1 0.376441 79.5 8.30402 16.433 0 
247 1 0.417974 79.5 8.73546 16.3454 0 
226 1 0.418002 79.5 9.22998 16.2331 0 
53 1 0.418687 79.5 9.69795 16.1792 0 
73 1 0.418056 79.5 10.1722 16.1396 0 
275 1 0.375236 79.5 10.6175 16.118 0 
20 1 0.418644 79.5 11.0902 16.073 0 
289 1 0.377045 79.5 11.5779 16.0584 0 
278 1 0.377425 79.5 11.8071 16.4398 0 
303 1 0.377701 79.5 12.0523 16.0409 0 
291 1 0.418671 79.5 12.2962 16.4373 0 
86 1 0.418347 79.5 12.5787 16.0462 0 
295 1 0.376364 79.5 13.0913 16.0805 0 
57 1 0.417312 79.5 13.6594 16.1342 0 
256 1 0.417029 79.5 14.2112 16.2755 0 
236 1 0.417091 79.5 14.8353 16.4109 0 
264 1 0.375728 79.5 5.30206 16.6471 0 
54 1 0.417762 79.5 5.82783 16.7333 0 
223 1 0.377582 79.5 6.33808 16.8646 0 
111 1 0.377387 79.5 6.67061 16.4801 0 
13 1 0.376492 79.5 7.14576 16.5942 0 
113 1 0.376209 79.5 7.62452 16.6712 0 
64 1 0.37804 79.5 8.04585 16.7459 0 
196 1 0.417674 79.5 8.54884 16.8035 0 
259 1 0.416952 79.5 9.06647 16.6437 0 
67 1 0.375259 79.5 9.53002 16.587 0 
204 1 0.417908 79.5 9.98669 16.5531 0 
207 1 0.375123 79.5 10.4305 16.5268 0 
18 1 0.417229 79.5 10.8772 16.491 0 
72 1 0.418442 79.5 11.3411 16.4649 0 
214 1 0.375802 79.5 11.121 16.8814 0 
153 1 0.418903 79.5 11.566 16.8531 0 
2 1 0.418632 79.5 12.0356 16.8306 0 
110 1 0.376982 79.5 12.8012 16.4814 0 
237 1 0.377021 79.5 12.5159 16.8422 0 
203 1 0.418748 79.5 13.3108 16.5258 0 
98 1 0.376685 79.5 13.8361 16.6482 0 
105 1 0.378261 79.5 14.4094 16.8075 0 
257 1 0.417584 79.5 4.91607 17.0757 0 
88 1 0.377633 79.5 5.49994 17.1864 0 
100 1 0.41738 79.5 6.01949 17.2495 0 
124 1 0.377489 79.5 6.52571 17.3298 0 
52 1 0.417492 79.5 6.81517 16.9482 0 
162 1 0.417925 79.5 7.30006 17.0312 0 
152 1 0.419353 79.5 7.7515 17.1112 0 
170 1 0.419066 79.5 8.20333 17.1535 0 
168 1 0.377281 79.5 8.60231 17.2673 0 
48 1 0.417895 79.5 8.93259 17.0474 0 
281 1 0.419313 79.5 9.37929 16.9839 0 
99 1 0.418162 79.5 9.81707 16.9535 0 
125 1 0.417497 79.5 10.0655 17.324 0 
134 1 0.377548 79.5 10.2524 16.9241 0 
40 1 0.417655 79.5 10.5006 17.2943 0 
39 1 0.417739 79.5 10.6849 16.8956 0 
46 1 0.377328 79.5 10.9247 17.2694 0 
299 1 0.376562 79.5 11.3447 17.2473 0 
119 1 0.418318 79.5 11.7929 17.2414 0 
242 1 0.419369 79.5 12.2515 17.2346 0 
269 1 0.377027 79.5 12.7006 17.235 0 
35 1 0.375085 79.5 12.9973 16.9024 0 
167 1 0.376423 79.5 13.1671 17.3321 0 
126 1 0.377564 79.5 13.4829 16.9823 0 
43 1 0.416658 79.5 14.0082 17.1298 0 
66 1 0.417743 79.5 15.0039 17.0148 0 
254 1 0.418928 79.5 4.57127 17.587 0 
7 1 0.376836 79.5 5.19394 17.6137 0 
136 1 0.377551 79.5 5.72676 17.6702 0 
232 1 0.41966 79.5 6.24166 17.7153 0 
25 1 0.418251 79.5 7.0076 17.404 0 
175 1 0.375285 79.5 7.47291 17.4768 0 
294 1 0.420196 79.5 7.90989 17.5435 0 
224 1 0.417151 79.5 8.33978 17.6046 0 
177 1 0.417786 79.5 8.7828 17.6327 0 
197 1 0.418138 79.5 9.18672 17.3848 0 
202 1 0.416907 79.5 9.62997 17.3584 0 
143 1 0.378123 79.5 9.52928 17.7438 0 
51 1 0.378133 79.5 9.91166 17.7198 0 
198 1 0.418579 79.5 10.3197 17.6906 0 
151 1 0.377236 79.5 10.7327 17.6608 0 
102 1 0.419434 79.5 11.1451 17.637 0 
106 1 0.418321 79.5 11.5779 17.6315 0 
65 1 0.375901 79.5 12.0108 17.6286 0 
10 1 0.377297 79.5 12.4357 17.6285 0 
115 1 0.377962 79.5 12.86 17.6222 0 
297 1 0.418019 79.5 13.6081 17.4456 0 
182 1 0.376421 79.5 14.1 17.6276 0 
244 1 0.377185 79.5 14.5269 17.3415 0 
130 1 0.41741 79.5 15.1278 17.5978 0 
90 1 0.418215 79.5 4.25205 18.1913 0 
265 1 0.4186 79.5 4.88607 18.0919 0 
1 1 0.416656 79.5 5.44022 18.0954 0 
183 1 0.418934 79.5 5.9833 18.1229 0 
243 1 0.376024 79.5 6.47548 18.169 0 
157 1 0.417922 79.5 6.72852 17.7834 0 
200 1 0.417021 79.5 6.9543 18.2088 0 
219 1 0.416465 79.5 7.22019 17.8344 0 
117 1 0.376414 79.5 7.66892 17.9004 0 
189 1 0.374207 79.5 8.10222 17.9605 0 
42 1 0.418538 79.5 8.52974 18.0053 0 
222 1 0.376423 79.5 9.15073 17.7786 0 
132 1 0.378247 79.5 8.9284 18.0876 0 
213 1 0.418946 79.5 9.3578 18.1159 0 
261 1 0.377169 79.5 9.75489 18.0971 0 
280 1 0.376116 79.5 10.1373 18.0632 0 
228 1 0.377094 79.5 10.5489 18.031 0 
22 1 0.376996 79.5 10.9556 18.0131 0 
233 1 0.376541 79.5 11.3716 18.0079 0 
181 1 0.377496 79.5 11.8004 17.9983 0 
80 1 0.376209 79.5 12.2268 17.9913 0 
23 1 0.377532 79.5 12.6826 17.9869 0 
240 1 0.417923 79.5 13.214 17.8635 0 
208 1 0.376279 79.5 13.6802 17.8807 0 
241 1 0.375449 79.5 14.2032 18.0807 0 
158 1 0.378408 79.5 14.6234 17.8473 0 
286 1 0.417076 79.5 15.0536 18.1996 0 
179 1 0.419049 79.5 15.6268 18.0219 0 
263 1 0.375892 79.5 4.64676 18.6077 0 
4 1 0.418796 79.5 5.17579 18.5857 0 
260 1 0.417822 79.5 5.7237 18.5317 0 
298 1 0.374614 79.5 6.24118 18.5483 0 
148 1 0.418606 79.5 6.71639 18.5867 0 
217 1 0.420187 79.5 7.41531 18.263 0 
245 1 0.376779 79.5 7.17739 18.6326 0 
188 1 0.417316 79.5 7.86895 18.3005 0 
201 1 0.37868 79.5 8.30323 18.3548 0 
97 1 0.377275 79.5 8.71037 18.4078 0 
108 1 0.37715 79.5 9.12709 18.4384 0 
140 1 0.378892 79.5 9.54429 18.4654 0 
287 1 0.378509 79.5 9.93788 18.434 0 
178 1 0.415965 79.5 10.3505 18.3963 0 
58 1 0.415805 79.5 10.7658 18.3803 0 
190 1 0.417687 79.5 11.1801 18.3791 0 
164 1 0.419166 79.5 11.6036 18.372 0 
29 1 0.417393 79.5 12.0294 18.375 0 
255 1 0.419607 79.5 12.468 18.3557 0 
31 1 0.376295 79.5 12.9319 18.3106 0 
274 1 0.37582 79.5 13.3565 18.2843 0 
185 1 0.37559 79.5 13.8002 18.2744 0 
191 1 0.419678 79.5 14.124 18.5942 0 
173 1 0.377039 79.5 14.5724 18.4007 0 
176 1 0.376448 79.5 15.4504 18.6258 0 
84 1 0.417941 79.5 4.26006 19.0255 0 
258 1 0.419432 79.5 4.87718 19.1005 0 
120 1 0.378184 79.5 5.50228 18.9566 0 
166 1 0.418977 79.5 6.00231 18.9464 0 
199 1 0.417759 79.5 6.48797 18.9763 0 
122 1 0.41785 79.5 6.95396 19.0126 0 
129 1 0.417621 79.5 7.4008 19.0405 0 
186 1 0.417704 79.5 7.62548 18.6729 0 
163 1 0.376966 79.5 7.84386 19.0652 0 
210 1 0.417016 79.5 8.06778 18.7002 0 
184 1 0.417741 79.5 8.27422 19.0773 0 
75 1 0.376447 79.5 8.49585 18.733 0 
59 1 0.419658 79.5 8.9138 18.7729 0 
69 1 0.376926 79.5 9.32375 18.7778 0 
68 1 0.37735 79.5 9.74157 18.7851 0 
262 1 0.418034 79.5 10.1586 18.7652 0 
192 1 0.418338 79.5 10.5831 18.7539 0 
230 1 0.376846 79.5 10.9801 18.7588 0 
268 1 0.418081 79.5 11.3906 18.75 0 
272 1 0.378957 79.5 11.8179 18.7495 0 
9 1 0.378113 79.5 12.2411 18.7455 0 
155 1 0.37768 79.5 12.0272 19.1004 0 
24 1 0.416559 79.5 12.6947 18.7184 0 
101 1 0.376457 79.5 12.4558 19.0909 0 
79 1 0.376387 79.5 13.1477 18.6847 0 
165 1 0.417616 79.5 12.9348 19.0796 0 
160 1 0.418475 79.5 13.6118 18.6752 0 
221 1 0.419252 79.5 13.4024 19.0775 0 
174 1 0.419338 79.5 13.9125 19.0479 0 
107 1 0.375813 79.5 14.4229 18.9423 0 
238 1 0.417818 79.5 14.9184 18.7791 0 
146 1 0.418691 79.5 15.8556 19.0648 0 
135 1 0.377153 79.5 5.30224 19.3558 0 
33 1 0.378072 79.5 5.78522 19.3592 0 
21 1 0.420824 79.5 6.27003 19.3736 0 
252 1 0.378093 79.5 6.74364 19.3943 0 
63 1 0.377654 79.5 7.18775 19.4187 0 
194 1 0.416887 79.5 7.62141 19.4284 0 
218 1 0.418811 79.5 8.07286 19.4418 0 
118 1 0.41851 79.5 8.689 19.1231 0 
15 1 0.377305 79.5 8.48803 19.4761 0 
296 1 0.418792 79.5 8.90606 19.4791 0 
12 1 0.37772 79.5 9.1176 19.1273 0 
293 1 0.417075 79.5 9.32167 19.483 0 
94 1 0.419162 79.5 9.52375 19.1192 0 
121 1 0.418093 79.5 9.73515 19.4779 0 
92 1 0.417624 79.5 9.94755 19.122 0 
253 1 0.415824 79.5 10.1707 19.4672 0 
276 1 0.417911 79.5 10.383 19.117 0 
216 1 0.376432 79.5 10.5872 19.4641 0 
283 1 0.377483 79.5 10.7797 19.1212 0 
89 1 0.376485 79.5 10.9712 19.4789 0 
209 1 0.419672 79.5 11.1772 19.1257 0 
11 1 0.377588 79.5 11.3773 19.4811 0 
229 1 0.41843 79.5 11.602 19.1143 0 
127 1 0.417806 79.5 11.8076 19.477 0 
302 1 0.377055 79.5 12.2311 19.4457 0 
49 1 0.419815 79.5 12.6907 19.4429 0 
45 1 0.41618 79.5 13.1707 19.4711 0 
17 1 0.37517 79.5 13.6629 19.4394 0 
266 1 0.376034 79.5 14.2137 19.386 0 
171 1 0.417726 79.5 14.729 19.3077 0 
30 1 0.376677 79.5 15.2616 19.1929 0 
169 1 0.378453 79.5 4.00178 19.5905 0 
212 1 0.41762 79.5 4.56086 19.6 0 
71 1 0.377916 79.5 5.04753 19.7385 0 
50 1 0.378881 79.5 5.54783 19.7629 0 
123 1 0.416947 79.5 6.02769 19.7732 0 
161 1 0.416955 79.5 6.5152 19.7819 0 
301 1 0.41979 79.5 6.98061 19.7906 0 
32 1 0.375477 79.5 7.42072 19.8096 0 
145 1 0.419666 79.5 7.85585 19.7986 0 
38 1 0.377736 79.5 8.29356 19.8159 0 
87 1 0.377593 79.5 8.70409 19.82 0 
8 1 0.378024 79.5 9.12125 19.823 0 
27 1 0.375782 79.5 9.53325 19.8236 0 
133 1 0.418748 79.5 9.96166 19.8181 0 
47 1 0.418289 79.5 10.3955 19.8102 0 
284 1 0.376238 79.5 10.7912 19.8184 0 
285 1 0.37676 79.5 11.179 19.8178 0 
220 1 0.375738 79.5 11.5838 19.8184 0 
41 1 0.375472 79.5 12.0147 19.8171 0 
26 1 0.417817 79.5 12.45 19.7971 0 
114 1 0.376368 79.5 12.9174 19.8137 0 
288 1 0.377512 79.5 13.4297 19.8097 0 
282 1 0.416306 79.5 13.9522 19.773 0 
3 1 0.376593 79.5 14.4805 19.7582 0 
83 1 0.419111 79.5 15.037 19.713 0 
267 1 0.418107 79.5 15.6198 19.6415 0 
