# LAMMPS data file for rigid bodies

303 atoms

1 atom types

0.0 	 20.0 	 xlo xhi 
0.0 	 20.0 	 ylo yhi 
-1.0 	 1.0 	 zlo zhi 

Atoms

248 1 0.417624 79.5 9.37952 13.6412 0 
142 1 0.376502 79.5 10.5 13.5024 0 
138 1 0.417163 79.5 11.1383 13.6742 0 
156 1 0.41736 79.5 7.64874 14.1598 0 
141 1 0.417537 79.5 8.56978 13.8451 0 
154 1 0.377463 79.5 9.07937 14.1247 0 
290 1 0.417552 79.5 9.96314 13.8297 0 
246 1 0.419558 79.5 10.5044 14.0687 0 
159 1 0.418141 79.5 11.7518 13.9673 0 
5 1 0.417956 79.5 12.3881 14.189 0 
211 1 0.376915 79.5 7.28307 14.6243 0 
271 1 0.419038 79.5 8.209 14.3437 0 
172 1 0.377906 79.5 8.72173 14.508 0 
235 1 0.417949 79.5 9.22809 14.6492 0 
137 1 0.377547 79.5 9.59812 14.2582 0 
206 1 0.377502 79.5 10.1014 14.4206 0 
270 1 0.377661 79.5 10.6003 14.6051 0 
77 1 0.416408 79.5 11.0299 14.238 0 
28 1 0.376324 79.5 11.5045 14.4668 0 
82 1 0.37548 79.5 11.9838 14.604 0 
95 1 0.378511 79.5 12.9989 14.4772 0 
187 1 0.376835 79.5 6.66792 14.756 0 
116 1 0.418074 79.5 7.82491 14.7863 0 
300 1 0.417817 79.5 8.36392 14.9064 0 
74 1 0.418792 79.5 8.86785 15.0336 0 
215 1 0.417318 79.5 9.73083 14.7851 0 
225 1 0.418808 79.5 10.2189 14.9351 0 
104 1 0.417492 79.5 11.0889 14.785 0 
195 1 0.376076 79.5 11.5639 14.9798 0 
139 1 0.377813 79.5 12.4852 14.791 0 
277 1 0.378085 79.5 12.9721 15.0284 0 
292 1 0.419322 79.5 5.59125 15.5453 0 
34 1 0.376733 79.5 6.18229 15.1635 0 
56 1 0.417661 79.5 6.6713 15.4436 0 
103 1 0.376732 79.5 7.08898 15.1171 0 
78 1 0.376793 79.5 7.56333 15.2479 0 
231 1 0.418206 79.5 8.05973 15.3268 0 
37 1 0.376521 79.5 8.54666 15.4227 0 
226 1 0.418002 79.5 9.02925 15.5231 0 
227 1 0.419731 79.5 9.3764 15.1602 0 
55 1 0.377258 79.5 9.84712 15.2866 0 
250 1 0.419005 79.5 10.3238 15.4246 0 
109 1 0.416555 79.5 10.7084 15.1206 0 
131 1 0.37743 79.5 11.1767 15.2906 0 
295 1 0.376364 79.5 11.643 15.4584 0 
205 1 0.417837 79.5 12.0498 15.1273 0 
60 1 0.378985 79.5 12.5319 15.3241 0 
98 1 0.376685 79.5 13.045 15.5358 0 
19 1 0.377048 79.5 13.497 15.1717 0 
16 1 0.418857 79.5 14.0344 15.4244 0 
76 1 0.376361 79.5 6.15314 15.7508 0 
249 1 0.37714 79.5 6.62259 15.9582 0 
251 1 0.418401 79.5 7.20179 15.6503 0 
62 1 0.419478 79.5 7.72214 15.7396 0 
150 1 0.42017 79.5 8.2255 15.8168 0 
128 1 0.417636 79.5 8.70017 15.8903 0 
14 1 0.378044 79.5 9.17079 15.9746 0 
91 1 0.375891 79.5 9.49863 15.6308 0 
144 1 0.417225 79.5 9.95541 15.7483 0 
149 1 0.420339 79.5 10.4377 15.8853 0 
96 1 0.375974 79.5 10.8036 15.6026 0 
86 1 0.418347 79.5 11.2555 15.7602 0 
193 1 0.377638 79.5 11.7093 15.9201 0 
81 1 0.377631 79.5 12.1042 15.6221 0 
57 1 0.417312 79.5 12.5986 15.8137 0 
112 1 0.37724 79.5 13.5343 15.7581 0 
236 1 0.417091 79.5 14.5836 15.8176 0 
61 1 0.416969 79.5 5.08682 16.1286 0 
279 1 0.419009 79.5 5.71089 16.1547 0 
180 1 0.4178 79.5 6.24736 16.3127 0 
147 1 0.378206 79.5 7.05311 16.1105 0 
273 1 0.375407 79.5 7.49471 16.166 0 
36 1 0.41802 79.5 7.94736 16.2253 0 
113 1 0.376209 79.5 8.39208 16.2883 0 
247 1 0.417974 79.5 8.83558 16.338 0 
259 1 0.416952 79.5 9.28614 16.4102 0 
234 1 0.376567 79.5 9.61277 16.0617 0 
93 1 0.375858 79.5 10.076 16.1808 0 
20 1 0.418644 79.5 10.5418 16.3274 0 
239 1 0.376202 79.5 10.8949 16.0662 0 
18 1 0.417229 79.5 11.3208 16.2359 0 
72 1 0.418442 79.5 11.7697 16.3787 0 
6 1 0.41784 79.5 12.174 16.0898 0 
303 1 0.377701 79.5 12.6347 16.3012 0 
203 1 0.418748 79.5 13.0791 16.0481 0 
126 1 0.377564 79.5 13.5551 16.2907 0 
256 1 0.417029 79.5 14.0382 16.0412 0 
66 1 0.417743 79.5 14.7183 16.4188 0 
264 1 0.375728 79.5 5.36024 16.6345 0 
54 1 0.417762 79.5 5.89638 16.7155 0 
7 1 0.376836 79.5 6.41151 16.8228 0 
223 1 0.377582 79.5 6.73471 16.4708 0 
88 1 0.377633 79.5 7.20705 16.5501 0 
111 1 0.377387 79.5 7.66067 16.6143 0 
85 1 0.378114 79.5 8.09202 16.6787 0 
196 1 0.417674 79.5 8.52278 16.73 0 
197 1 0.418138 79.5 8.96384 16.7803 0 
53 1 0.418687 79.5 9.73293 16.4814 0 
48 1 0.417895 79.5 9.40462 16.8503 0 
73 1 0.418056 79.5 10.1822 16.6058 0 
134 1 0.377548 79.5 10.6161 16.7482 0 
275 1 0.375236 79.5 10.9748 16.5369 0 
207 1 0.375123 79.5 11.3891 16.686 0 
278 1 0.377425 79.5 11.8225 16.8109 0 
289 1 0.377045 79.5 12.2208 16.5445 0 
291 1 0.418671 79.5 12.696 16.7571 0 
110 1 0.376982 79.5 13.1168 16.532 0 
35 1 0.375085 79.5 13.5554 16.78 0 
105 1 0.378261 79.5 14.0334 16.5657 0 
244 1 0.377185 79.5 14.4596 16.8878 0 
100 1 0.41738 79.5 4.9171 17.0083 0 
257 1 0.417584 79.5 5.54014 17.143 0 
1 1 0.416656 79.5 6.08992 17.2078 0 
25 1 0.418251 79.5 6.59828 17.285 0 
124 1 0.377489 79.5 6.8959 16.9172 0 
232 1 0.41966 79.5 7.36105 16.9854 0 
13 1 0.376492 79.5 7.81601 17.0438 0 
44 1 0.376441 79.5 8.24339 17.1049 0 
64 1 0.37804 79.5 8.65798 17.1586 0 
170 1 0.419066 79.5 9.08453 17.2054 0 
168 1 0.377281 79.5 9.50216 17.2681 0 
281 1 0.419313 79.5 9.83617 16.9108 0 
204 1 0.417908 79.5 9.91922 17.3206 0 
67 1 0.375259 79.5 10.2673 17.0175 0 
214 1 0.375802 79.5 11.0564 16.979 0 
299 1 0.376562 79.5 10.6842 17.1263 0 
237 1 0.377021 79.5 11.4718 17.0998 0 
153 1 0.418903 79.5 11.9047 17.2329 0 
2 1 0.418632 79.5 12.2829 16.9768 0 
269 1 0.377027 79.5 12.7112 17.226 0 
167 1 0.376423 79.5 13.1188 16.9979 0 
297 1 0.418019 79.5 13.5217 17.2748 0 
43 1 0.416658 79.5 13.9878 17.0857 0 
179 1 0.419049 79.5 14.9713 17.112 0 
70 1 0.418537 79.5 4.57276 17.5424 0 
254 1 0.418928 79.5 5.19586 17.5621 0 
219 1 0.416465 79.5 5.78466 17.6208 0 
157 1 0.417922 79.5 6.29977 17.6801 0 
136 1 0.377551 79.5 7.06956 17.3631 0 
294 1 0.420196 79.5 6.80137 17.7409 0 
152 1 0.419353 79.5 7.51769 17.4243 0 
52 1 0.417492 79.5 7.97 17.4675 0 
175 1 0.375285 79.5 8.39226 17.5183 0 
162 1 0.417925 79.5 8.80258 17.5752 0 
99 1 0.418162 79.5 9.22102 17.6244 0 
202 1 0.416907 79.5 9.637 17.6715 0 
143 1 0.378123 79.5 10.0433 17.7054 0 
39 1 0.417739 79.5 10.3466 17.4157 0 
40 1 0.417655 79.5 10.7675 17.5135 0 
119 1 0.418318 79.5 11.1733 17.4228 0 
106 1 0.418321 79.5 11.5871 17.5375 0 
233 1 0.376541 79.5 12.0274 17.6543 0 
10 1 0.377297 79.5 12.335 17.4143 0 
242 1 0.419369 79.5 12.6329 17.717 0 
23 1 0.377532 79.5 13.0782 17.4537 0 
115 1 0.377962 79.5 13.5043 17.7409 0 
182 1 0.376421 79.5 13.9479 17.5838 0 
158 1 0.378408 79.5 14.4321 17.4028 0 
107 1 0.375813 79.5 14.8417 17.7351 0 
286 1 0.417076 79.5 15.3894 17.5603 0 
90 1 0.418215 79.5 4.29917 18.1577 0 
265 1 0.4186 79.5 4.91203 18.048 0 
183 1 0.418934 79.5 5.49782 18.0318 0 
243 1 0.376024 79.5 6.02828 18.0769 0 
217 1 0.420187 79.5 6.52207 18.1245 0 
117 1 0.376414 79.5 6.99988 18.1733 0 
189 1 0.374207 79.5 7.25023 17.8005 0 
188 1 0.417316 79.5 7.6941 17.8507 0 
224 1 0.417151 79.5 8.13604 17.8949 0 
177 1 0.417786 79.5 8.55361 17.9432 0 
222 1 0.376423 79.5 8.95942 17.9918 0 
125 1 0.417497 79.5 9.35802 18.032 0 
228 1 0.377094 79.5 9.75431 18.0582 0 
102 1 0.419434 79.5 10.1531 18.0848 0 
198 1 0.418579 79.5 10.4789 17.8236 0 
178 1 0.415965 79.5 10.6668 18.194 0 
151 1 0.377236 79.5 10.9311 17.8748 0 
46 1 0.377328 79.5 11.3172 17.8712 0 
164 1 0.419166 79.5 11.7492 17.9467 0 
65 1 0.375901 79.5 12.2526 17.9828 0 
31 1 0.376295 79.5 12.6673 18.1622 0 
240 1 0.417923 79.5 13.066 17.8867 0 
185 1 0.37559 79.5 13.4515 18.1855 0 
208 1 0.376279 79.5 13.8817 18.0571 0 
130 1 0.41741 79.5 14.3447 17.9144 0 
173 1 0.377039 79.5 15.2042 18.1619 0 
146 1 0.418691 79.5 15.7873 18.082 0 
263 1 0.375892 79.5 4.70728 18.5792 0 
4 1 0.418796 79.5 5.25149 18.4828 0 
212 1 0.41762 79.5 5.77386 18.4861 0 
260 1 0.417822 79.5 6.26273 18.5228 0 
200 1 0.417021 79.5 6.75322 18.5498 0 
245 1 0.376779 79.5 7.20272 18.5952 0 
186 1 0.417704 79.5 7.43812 18.224 0 
210 1 0.417016 79.5 7.89503 18.2715 0 
42 1 0.418538 79.5 7.64731 18.6384 0 
201 1 0.37868 79.5 8.31363 18.3178 0 
132 1 0.378247 79.5 8.71231 18.335 0 
51 1 0.378133 79.5 9.11173 18.3776 0 
287 1 0.378509 79.5 9.50146 18.411 0 
68 1 0.37735 79.5 9.89174 18.4105 0 
92 1 0.417624 79.5 10.3411 18.4484 0 
22 1 0.376996 79.5 11.092 18.2365 0 
262 1 0.418034 79.5 10.8539 18.566 0 
268 1 0.418081 79.5 11.4925 18.2856 0 
229 1 0.41843 79.5 11.2617 18.6469 0 
255 1 0.419607 79.5 11.9414 18.3247 0 
80 1 0.376209 79.5 12.3516 18.3878 0 
272 1 0.378957 79.5 12.8416 18.6534 0 
181 1 0.377496 79.5 13.0428 18.3135 0 
274 1 0.37582 79.5 13.3148 18.6272 0 
191 1 0.419678 79.5 13.7684 18.5304 0 
241 1 0.375449 79.5 14.2196 18.425 0 
160 1 0.418475 79.5 14.7016 18.2979 0 
176 1 0.376448 79.5 15.5636 18.6376 0 
84 1 0.417941 79.5 4.2105 18.853 0 
298 1 0.374614 79.5 5.06131 18.9369 0 
169 1 0.378453 79.5 5.56051 18.9178 0 
120 1 0.378184 79.5 6.02672 18.9331 0 
148 1 0.418606 79.5 6.49645 18.9519 0 
199 1 0.417759 79.5 6.96213 18.9753 0 
122 1 0.41785 79.5 7.41082 19.0066 0 
163 1 0.376966 79.5 7.8512 19.0334 0 
108 1 0.37715 79.5 8.07417 18.6769 0 
75 1 0.376447 79.5 8.2494 19.0609 0 
97 1 0.377275 79.5 8.46675 18.7013 0 
261 1 0.377169 79.5 8.63463 19.0795 0 
213 1 0.418946 79.5 8.86653 18.7131 0 
280 1 0.376116 79.5 9.27626 18.7499 0 
59 1 0.419658 79.5 9.04272 19.0922 0 
140 1 0.378892 79.5 9.65678 18.7581 0 
121 1 0.418093 79.5 10.0683 18.7624 0 
296 1 0.418792 79.5 9.83758 19.1113 0 
276 1 0.417911 79.5 10.5264 18.8109 0 
192 1 0.418338 79.5 11.0248 18.9911 0 
58 1 0.415805 79.5 11.4328 19.066 0 
190 1 0.417687 79.5 11.6753 18.6943 0 
155 1 0.37768 79.5 11.8284 19.0924 0 
9 1 0.378113 79.5 12.0711 18.7292 0 
127 1 0.417806 79.5 12.2449 19.1046 0 
101 1 0.376457 79.5 12.47 18.7503 0 
302 1 0.377055 79.5 12.6854 19.0875 0 
29 1 0.417393 79.5 13.1117 19.0158 0 
221 1 0.419252 79.5 13.5926 18.9855 0 
79 1 0.376387 79.5 14.0527 18.9172 0 
24 1 0.416559 79.5 14.5205 18.8265 0 
174 1 0.419338 79.5 15.032 18.7299 0 
238 1 0.417818 79.5 15.9536 19.095 0 
258 1 0.419432 79.5 3.98422 19.4518 0 
71 1 0.377916 79.5 4.67694 19.2241 0 
33 1 0.378072 79.5 5.31241 19.3257 0 
135 1 0.377153 79.5 5.7965 19.3406 0 
166 1 0.418977 79.5 6.25642 19.3627 0 
194 1 0.416887 79.5 6.72699 19.381 0 
301 1 0.41979 79.5 7.17331 19.3996 0 
129 1 0.417621 79.5 7.62258 19.4013 0 
63 1 0.377654 79.5 8.03716 19.4191 0 
15 1 0.377305 79.5 8.41353 19.4453 0 
184 1 0.417741 79.5 8.80831 19.4544 0 
118 1 0.41851 79.5 9.22163 19.4694 0 
69 1 0.376926 79.5 9.44123 19.1121 0 
293 1 0.417075 79.5 9.63017 19.4771 0 
253 1 0.415824 79.5 10.0384 19.4723 0 
94 1 0.419162 79.5 10.2613 19.1266 0 
47 1 0.418289 79.5 10.4602 19.4873 0 
230 1 0.376846 79.5 10.6794 19.1666 0 
216 1 0.376432 79.5 10.8568 19.4928 0 
283 1 0.377483 79.5 11.2203 19.4143 0 
41 1 0.375472 79.5 11.5988 19.4567 0 
209 1 0.419672 79.5 12.0102 19.4678 0 
26 1 0.417817 79.5 12.4655 19.4684 0 
49 1 0.419815 79.5 12.9207 19.4453 0 
165 1 0.417616 79.5 13.3765 19.4019 0 
17 1 0.37517 79.5 13.8528 19.3612 0 
266 1 0.376034 79.5 14.3179 19.3042 0 
30 1 0.376677 79.5 14.8067 19.2515 0 
267 1 0.418107 79.5 15.3351 19.1932 0 
50 1 0.378881 79.5 4.48556 19.6971 0 
123 1 0.416947 79.5 5.0082 19.7051 0 
21 1 0.420824 79.5 5.54791 19.7517 0 
252 1 0.378093 79.5 6.03302 19.7715 0 
161 1 0.416955 79.5 6.50305 19.7826 0 
32 1 0.375477 79.5 6.95715 19.7959 0 
218 1 0.418811 79.5 7.39831 19.7929 0 
145 1 0.419666 79.5 7.84362 19.7938 0 
38 1 0.377736 79.5 8.2562 19.8129 0 
87 1 0.377593 79.5 8.64558 19.8167 0 
12 1 0.37772 79.5 9.03834 19.8201 0 
27 1 0.375782 79.5 9.43578 19.8217 0 
8 1 0.378024 79.5 9.82738 19.8222 0 
133 1 0.418748 79.5 10.2351 19.8249 0 
284 1 0.376238 79.5 10.6542 19.8266 0 
89 1 0.376485 79.5 11.04 19.8187 0 
11 1 0.377588 79.5 11.415 19.8124 0 
285 1 0.37676 79.5 11.8055 19.8169 0 
114 1 0.376368 79.5 12.2331 19.8169 0 
288 1 0.377512 79.5 12.6856 19.815 0 
3 1 0.376593 79.5 13.1438 19.8103 0 
45 1 0.41618 79.5 13.6178 19.7818 0 
171 1 0.417726 79.5 14.105 19.7535 0 
282 1 0.416306 79.5 14.6029 19.7228 0 
220 1 0.375738 79.5 15.108 19.6984 0 
83 1 0.419111 79.5 15.6803 19.6543 0 
