# LAMMPS data file for rigid bodies

303 atoms

1 atom types

0.0 	 20.0 	 xlo xhi 
0.0 	 20.0 	 ylo yhi 
-1.0 	 1.0 	 zlo zhi 

Atoms

141 1 0.417537 79.5 9.29927 13.599 0 
248 1 0.417624 79.5 9.96614 13.526 0 
142 1 0.376502 79.5 10.6559 13.5638 0 
159 1 0.418141 79.5 11.3715 13.6113 0 
116 1 0.418074 79.5 7.55269 14.1939 0 
172 1 0.377906 79.5 8.15054 14.0895 0 
156 1 0.41736 79.5 8.70667 13.9597 0 
154 1 0.377463 79.5 9.2159 14.1605 0 
137 1 0.377547 79.5 9.75389 14.0732 0 
290 1 0.417552 79.5 10.3234 14.0304 0 
138 1 0.417163 79.5 10.9743 14.0691 0 
82 1 0.37548 79.5 11.6105 14.1485 0 
187 1 0.376835 79.5 6.95712 14.4588 0 
271 1 0.419038 79.5 7.98826 14.6414 0 
227 1 0.419731 79.5 8.53618 14.5565 0 
55 1 0.377258 79.5 9.03518 14.6269 0 
235 1 0.417949 79.5 9.55563 14.5692 0 
206 1 0.377502 79.5 10.0755 14.521 0 
215 1 0.417318 79.5 10.6192 14.4883 0 
77 1 0.416408 79.5 11.2326 14.5691 0 
28 1 0.376324 79.5 12.1912 14.2758 0 
139 1 0.377813 79.5 12.7608 14.4254 0 
34 1 0.376733 79.5 6.80264 14.9924 0 
78 1 0.376793 79.5 7.4321 14.7753 0 
37 1 0.376521 79.5 8.35425 15.0695 0 
91 1 0.375891 79.5 8.83605 15.0707 0 
74 1 0.418792 79.5 9.33213 15.0465 0 
250 1 0.419005 79.5 9.84418 15.0011 0 
225 1 0.418808 79.5 10.3475 14.9534 0 
246 1 0.419558 79.5 10.8684 14.9396 0 
131 1 0.37743 79.5 11.422 15.0738 0 
104 1 0.417492 79.5 11.7834 14.6718 0 
5 1 0.417956 79.5 12.3206 14.8849 0 
95 1 0.378511 79.5 12.8532 14.9656 0 
277 1 0.378085 79.5 13.4118 14.8474 0 
292 1 0.419322 79.5 6.23043 15.193 0 
76 1 0.376361 79.5 6.74775 15.5231 0 
56 1 0.417661 79.5 7.2737 15.2798 0 
300 1 0.417817 79.5 7.82738 15.1559 0 
150 1 0.42017 79.5 8.18354 15.5464 0 
128 1 0.417636 79.5 8.66757 15.5194 0 
14 1 0.378044 79.5 9.14485 15.4921 0 
144 1 0.417225 79.5 9.62345 15.4639 0 
149 1 0.420339 79.5 10.1081 15.4349 0 
96 1 0.375974 79.5 10.5717 15.3744 0 
109 1 0.416555 79.5 11.0635 15.3798 0 
195 1 0.376076 79.5 11.8956 15.1751 0 
57 1 0.417312 79.5 12.5614 15.4182 0 
205 1 0.417837 79.5 13.1622 15.3987 0 
19 1 0.377048 79.5 13.7476 15.3649 0 
264 1 0.375728 79.5 5.71051 15.6258 0 
279 1 0.419009 79.5 6.25292 15.8055 0 
249 1 0.37714 79.5 7.19001 15.779 0 
231 1 0.418206 79.5 7.67624 15.6542 0 
44 1 0.376441 79.5 8.50298 15.9761 0 
226 1 0.418002 79.5 8.95906 15.928 0 
259 1 0.416952 79.5 9.42526 15.9012 0 
275 1 0.375236 79.5 9.87538 15.8805 0 
270 1 0.377661 79.5 10.3083 15.8489 0 
86 1 0.418347 79.5 10.7488 15.7885 0 
81 1 0.377631 79.5 11.2211 15.7893 0 
60 1 0.378985 79.5 11.6056 15.5743 0 
193 1 0.377638 79.5 11.886 15.9902 0 
295 1 0.376364 79.5 12.094 15.5822 0 
303 1 0.377701 79.5 12.3921 15.9353 0 
6 1 0.41784 79.5 12.8875 15.8644 0 
98 1 0.376685 79.5 13.4359 15.8547 0 
16 1 0.418857 79.5 14.0621 15.8514 0 
236 1 0.417091 79.5 14.6629 15.9915 0 
257 1 0.417584 79.5 5.24905 16.09 0 
61 1 0.416969 79.5 5.8511 16.2247 0 
251 1 0.418401 79.5 6.36807 16.3909 0 
211 1 0.376915 79.5 6.72094 16.033 0 
103 1 0.376732 79.5 7.12922 16.2362 0 
36 1 0.41802 79.5 7.57482 16.1515 0 
52 1 0.417492 79.5 8.04848 16.0184 0 
113 1 0.376209 79.5 8.34093 16.4086 0 
48 1 0.417895 79.5 8.78478 16.37 0 
247 1 0.417974 79.5 9.23455 16.3404 0 
93 1 0.375858 79.5 9.67361 16.2918 0 
234 1 0.376567 79.5 10.1074 16.2619 0 
239 1 0.376202 79.5 10.5324 16.2261 0 
20 1 0.418644 79.5 10.9899 16.1834 0 
278 1 0.377425 79.5 11.4694 16.1212 0 
72 1 0.418442 79.5 12.1832 16.3649 0 
289 1 0.377045 79.5 12.6687 16.3282 0 
110 1 0.376982 79.5 13.1595 16.2985 0 
203 1 0.418748 79.5 13.7073 16.2928 0 
112 1 0.37724 79.5 14.2875 16.4468 0 
70 1 0.418537 79.5 4.82087 16.6511 0 
180 1 0.4178 79.5 5.4811 16.6538 0 
223 1 0.377582 79.5 6.02513 16.78 0 
147 1 0.378206 79.5 6.84731 16.5709 0 
62 1 0.419478 79.5 7.36844 16.6379 0 
273 1 0.375407 79.5 7.90477 16.4626 0 
85 1 0.378114 79.5 7.76933 16.8511 0 
13 1 0.376492 79.5 8.19418 16.8263 0 
196 1 0.417674 79.5 8.62261 16.7958 0 
67 1 0.375259 79.5 9.05359 16.7719 0 
53 1 0.418687 79.5 9.47687 16.7288 0 
73 1 0.418056 79.5 9.9094 16.6648 0 
207 1 0.375123 79.5 10.3485 16.6322 0 
18 1 0.417229 79.5 10.7842 16.5933 0 
153 1 0.418903 79.5 11.2658 16.5437 0 
2 1 0.418632 79.5 11.7315 16.4771 0 
269 1 0.377027 79.5 11.9685 16.8432 0 
291 1 0.418671 79.5 12.4254 16.7665 0 
237 1 0.377021 79.5 12.903 16.7258 0 
35 1 0.375085 79.5 13.3894 16.719 0 
105 1 0.378261 79.5 13.8941 16.7644 0 
256 1 0.417029 79.5 14.9009 16.6259 0 
7 1 0.376836 79.5 5.15695 17.1066 0 
100 1 0.41738 79.5 5.69887 17.1735 0 
88 1 0.377633 79.5 6.21568 17.2774 0 
54 1 0.417762 79.5 6.51753 16.9067 0 
124 1 0.377489 79.5 7.01872 16.9939 0 
111 1 0.377387 79.5 7.45867 17.1146 0 
64 1 0.37804 79.5 7.97945 17.2117 0 
197 1 0.418138 79.5 8.42644 17.2185 0 
281 1 0.419313 79.5 8.86942 17.1845 0 
134 1 0.377548 79.5 9.2977 17.1406 0 
299 1 0.376562 79.5 9.71017 17.0935 0 
119 1 0.418318 79.5 10.1458 17.0293 0 
214 1 0.375802 79.5 10.5929 16.9841 0 
242 1 0.419369 79.5 11.0559 16.9478 0 
151 1 0.377236 79.5 10.8509 17.3139 0 
10 1 0.377297 79.5 11.5237 16.8997 0 
46 1 0.377328 79.5 11.3234 17.275 0 
233 1 0.376541 79.5 11.7635 17.2428 0 
31 1 0.376295 79.5 12.2001 17.1939 0 
115 1 0.377962 79.5 12.6577 17.1488 0 
23 1 0.377532 79.5 13.1207 17.1215 0 
126 1 0.377564 79.5 13.5884 17.1579 0 
43 1 0.416658 79.5 14.0577 17.2315 0 
244 1 0.377185 79.5 14.4772 16.9763 0 
66 1 0.417743 79.5 15.3498 17.1177 0 
254 1 0.418928 79.5 4.7217 17.472 0 
265 1 0.4186 79.5 5.33712 17.5999 0 
232 1 0.41966 79.5 5.89962 17.6511 0 
175 1 0.375285 79.5 6.40716 17.717 0 
136 1 0.377551 79.5 6.70082 17.351 0 
25 1 0.418251 79.5 7.16598 17.4399 0 
162 1 0.417925 79.5 7.66908 17.504 0 
170 1 0.419066 79.5 8.18427 17.5933 0 
168 1 0.377281 79.5 8.65613 17.594 0 
202 1 0.416907 79.5 9.10028 17.5509 0 
99 1 0.418162 79.5 9.5246 17.508 0 
39 1 0.417739 79.5 9.95146 17.4384 0 
40 1 0.417655 79.5 10.2187 17.7611 0 
125 1 0.417497 79.5 10.4081 17.3669 0 
102 1 0.419434 79.5 10.6698 17.6974 0 
268 1 0.418081 79.5 11.1184 17.6387 0 
65 1 0.375901 79.5 11.5617 17.6146 0 
80 1 0.376209 79.5 11.9927 17.5941 0 
240 1 0.417923 79.5 12.4323 17.5601 0 
297 1 0.418019 79.5 12.9016 17.5351 0 
167 1 0.376423 79.5 13.3641 17.5326 0 
130 1 0.41741 79.5 13.8847 17.6926 0 
158 1 0.378408 79.5 14.3934 17.5948 0 
182 1 0.376421 79.5 14.851 17.3755 0 
90 1 0.418215 79.5 4.41105 17.9995 0 
1 1 0.416656 79.5 5.01171 18.0412 0 
183 1 0.418934 79.5 5.59363 18.0586 0 
219 1 0.416465 79.5 6.13279 18.0976 0 
243 1 0.376024 79.5 6.60889 18.1703 0 
157 1 0.417922 79.5 6.86357 17.7997 0 
294 1 0.420196 79.5 7.3431 17.863 0 
152 1 0.419353 79.5 7.78439 17.9238 0 
210 1 0.417016 79.5 8.19626 18.0104 0 
189 1 0.374207 79.5 8.58882 17.9817 0 
224 1 0.417151 79.5 8.9822 17.9508 0 
222 1 0.376423 79.5 9.38579 17.9194 0 
204 1 0.417908 79.5 9.78221 17.8678 0 
280 1 0.376116 79.5 10.0668 18.1435 0 
198 1 0.418579 79.5 10.4847 18.0843 0 
164 1 0.419166 79.5 10.9295 18.0332 0 
190 1 0.417687 79.5 11.3677 17.9991 0 
29 1 0.417393 79.5 11.795 17.9802 0 
155 1 0.37768 79.5 12.2213 17.9662 0 
255 1 0.419607 79.5 12.652 17.9581 0 
181 1 0.377496 79.5 13.0834 17.9456 0 
208 1 0.376279 79.5 13.5022 17.935 0 
185 1 0.37559 79.5 13.8087 18.2195 0 
241 1 0.375449 79.5 14.2522 18.0662 0 
286 1 0.417076 79.5 14.7852 17.9354 0 
179 1 0.419049 79.5 15.3837 17.7945 0 
263 1 0.375892 79.5 4.128 18.548 0 
4 1 0.418796 79.5 4.72915 18.5393 0 
298 1 0.374614 79.5 5.3269 18.472 0 
260 1 0.417822 79.5 5.85048 18.4992 0 
217 1 0.420187 79.5 6.3489 18.5465 0 
186 1 0.417704 79.5 7.07565 18.2294 0 
200 1 0.417021 79.5 6.82382 18.6031 0 
42 1 0.418538 79.5 7.28663 18.6528 0 
117 1 0.376414 79.5 7.52407 18.289 0 
188 1 0.417316 79.5 7.94643 18.358 0 
97 1 0.377275 79.5 8.39081 18.37 0 
132 1 0.378247 79.5 8.78983 18.3405 0 
177 1 0.417786 79.5 9.20828 18.3133 0 
143 1 0.378123 79.5 9.60716 18.2716 0 
51 1 0.378133 79.5 9.91542 18.4859 0 
228 1 0.377094 79.5 10.3177 18.4536 0 
106 1 0.418321 79.5 10.7435 18.4116 0 
178 1 0.415965 79.5 11.1817 18.3821 0 
22 1 0.376996 79.5 11.5975 18.3726 0 
229 1 0.41843 79.5 12.0225 18.3565 0 
272 1 0.378957 79.5 12.4501 18.3504 0 
274 1 0.37582 79.5 12.877 18.3461 0 
79 1 0.376387 79.5 13.3121 18.3271 0 
24 1 0.416559 79.5 13.6098 18.6504 0 
191 1 0.419678 79.5 14.1056 18.5645 0 
107 1 0.375813 79.5 14.5899 18.4307 0 
173 1 0.377039 79.5 15.1432 18.3238 0 
146 1 0.418691 79.5 15.5974 18.6479 0 
84 1 0.417941 79.5 4.39689 19.0575 0 
169 1 0.378453 79.5 5.10696 18.8925 0 
212 1 0.41762 79.5 5.60726 18.9185 0 
148 1 0.418606 79.5 6.10088 18.9525 0 
166 1 0.418977 79.5 6.58236 18.9866 0 
245 1 0.376779 79.5 7.0465 19.0161 0 
63 1 0.377654 79.5 7.4895 19.0478 0 
201 1 0.37868 79.5 7.71807 18.6998 0 
129 1 0.417621 79.5 7.91886 19.0721 0 
163 1 0.376966 79.5 8.15831 18.7151 0 
218 1 0.418811 79.5 8.34675 19.0809 0 
75 1 0.376447 79.5 8.57243 18.7067 0 
184 1 0.417741 79.5 8.76328 19.0567 0 
59 1 0.419658 79.5 8.99144 18.6976 0 
140 1 0.378892 79.5 9.16943 19.0703 0 
213 1 0.418946 79.5 9.40928 18.6816 0 
261 1 0.377169 79.5 9.77136 18.8283 0 
287 1 0.378509 79.5 10.1561 18.8031 0 
262 1 0.418034 79.5 10.5534 18.7824 0 
92 1 0.417624 79.5 10.9855 18.752 0 
192 1 0.418338 79.5 11.4025 18.7545 0 
58 1 0.415805 79.5 11.8191 18.7465 0 
127 1 0.417806 79.5 12.2526 18.7406 0 
41 1 0.375472 79.5 12.0238 19.1064 0 
101 1 0.376457 79.5 12.6784 18.7228 0 
302 1 0.377055 79.5 12.4656 19.1017 0 
17 1 0.37517 79.5 12.8931 19.0833 0 
9 1 0.378113 79.5 13.1122 18.7117 0 
221 1 0.419252 79.5 13.3818 19.0575 0 
176 1 0.376448 79.5 13.8841 19.0146 0 
160 1 0.418475 79.5 14.4011 18.9361 0 
174 1 0.419338 79.5 14.9371 18.808 0 
258 1 0.419432 79.5 4.008 19.5411 0 
71 1 0.377916 79.5 4.8648 19.2919 0 
33 1 0.378072 79.5 5.38085 19.3312 0 
120 1 0.378184 79.5 5.87081 19.3571 0 
199 1 0.417759 79.5 6.33792 19.3894 0 
122 1 0.41785 79.5 6.80728 19.396 0 
301 1 0.41979 79.5 7.26815 19.4044 0 
32 1 0.375477 79.5 7.70894 19.4269 0 
38 1 0.377736 79.5 8.13646 19.4457 0 
15 1 0.377305 79.5 8.53235 19.4478 0 
118 1 0.41851 79.5 8.9317 19.4346 0 
108 1 0.37715 79.5 9.54089 19.1218 0 
94 1 0.419162 79.5 9.75164 19.4582 0 
296 1 0.418792 79.5 9.34057 19.4682 0 
68 1 0.37735 79.5 9.97946 19.1368 0 
121 1 0.418093 79.5 10.1697 19.4808 0 
69 1 0.376926 79.5 10.3698 19.1339 0 
47 1 0.418289 79.5 10.5792 19.4695 0 
276 1 0.417911 79.5 10.7967 19.1204 0 
216 1 0.376432 79.5 10.9994 19.4666 0 
283 1 0.377483 79.5 11.2007 19.1209 0 
89 1 0.376485 79.5 11.3873 19.4703 0 
230 1 0.376846 79.5 11.6 19.1167 0 
209 1 0.419672 79.5 11.8033 19.466 0 
26 1 0.417817 79.5 12.2447 19.4608 0 
288 1 0.377512 79.5 12.6833 19.4596 0 
165 1 0.417616 79.5 13.1373 19.4403 0 
30 1 0.376677 79.5 13.6535 19.4055 0 
266 1 0.376034 79.5 14.1591 19.3637 0 
238 1 0.417818 79.5 14.7154 19.3079 0 
171 1 0.417726 79.5 15.2937 19.2043 0 
267 1 0.418107 79.5 15.9166 19.2141 0 
50 1 0.378881 79.5 4.55958 19.6934 0 
123 1 0.416947 79.5 5.10528 19.7366 0 
21 1 0.420824 79.5 5.63256 19.7558 0 
135 1 0.377153 79.5 6.11793 19.7816 0 
252 1 0.378093 79.5 6.57748 19.7922 0 
161 1 0.416955 79.5 7.03216 19.793 0 
194 1 0.416887 79.5 7.48729 19.7945 0 
145 1 0.419666 79.5 7.92657 19.7954 0 
87 1 0.377593 79.5 8.34261 19.8138 0 
253 1 0.415824 79.5 8.745 19.8035 0 
12 1 0.37772 79.5 9.1498 19.8177 0 
27 1 0.375782 79.5 9.53945 19.821 0 
293 1 0.417075 79.5 9.94365 19.8197 0 
8 1 0.378024 79.5 10.3755 19.8225 0 
133 1 0.418748 79.5 10.8016 19.8108 0 
284 1 0.376238 79.5 11.1995 19.8173 0 
285 1 0.37676 79.5 11.5939 19.8173 0 
11 1 0.377588 79.5 12.0173 19.8167 0 
114 1 0.376368 79.5 12.4573 19.815 0 
3 1 0.376593 79.5 12.905 19.8125 0 
49 1 0.419815 79.5 13.4079 19.7905 0 
45 1 0.41618 79.5 13.9194 19.7702 0 
282 1 0.416306 79.5 14.4448 19.7453 0 
83 1 0.419111 79.5 15.0081 19.7167 0 
220 1 0.375738 79.5 15.5603 19.6845 0 
