# LAMMPS data file for rigid bodies

303 atoms

1 atom types

0.0 	 20.0 	 xlo xhi 
0.0 	 20.0 	 ylo yhi 
-1.0 	 1.0 	 zlo zhi 

Atoms

141 1 0.417537 79.5 8.40409 13.6883 0 
248 1 0.417624 79.5 9.70833 13.4232 0 
142 1 0.376502 79.5 10.4376 13.5135 0 
77 1 0.416408 79.5 11.0687 13.6901 0 
116 1 0.418074 79.5 7.374 14.1626 0 
156 1 0.41736 79.5 8.02111 14.1636 0 
154 1 0.377463 79.5 8.99207 13.7969 0 
137 1 0.377547 79.5 9.5 13.9565 0 
290 1 0.417552 79.5 10.0499 13.9694 0 
138 1 0.417163 79.5 10.6178 14.0718 0 
159 1 0.418141 79.5 11.645 13.9133 0 
5 1 0.417956 79.5 12.2792 13.9146 0 
172 1 0.377906 79.5 8.62627 14.2552 0 
206 1 0.377502 79.5 9.15709 14.3585 0 
235 1 0.417949 79.5 9.68718 14.4491 0 
215 1 0.417318 79.5 10.2199 14.4984 0 
225 1 0.418808 79.5 10.7519 14.5915 0 
28 1 0.376324 79.5 11.1704 14.2993 0 
82 1 0.37548 79.5 11.6544 14.474 0 
95 1 0.378511 79.5 12.1731 14.474 0 
139 1 0.377813 79.5 12.7406 14.3883 0 
187 1 0.376835 79.5 6.59584 14.6948 0 
78 1 0.376793 79.5 7.1565 14.7238 0 
271 1 0.419038 79.5 7.72307 14.6735 0 
300 1 0.417817 79.5 8.28555 14.6887 0 
227 1 0.419731 79.5 8.83528 14.7606 0 
37 1 0.376521 79.5 9.35377 14.8408 0 
55 1 0.377258 79.5 9.87229 14.9161 0 
96 1 0.375974 79.5 10.3638 14.9728 0 
270 1 0.377661 79.5 10.8553 15.0488 0 
246 1 0.419558 79.5 11.327 14.87 0 
195 1 0.376076 79.5 11.904 14.9229 0 
60 1 0.378985 79.5 12.4393 14.9249 0 
205 1 0.417837 79.5 13.0103 14.8868 0 
19 1 0.377048 79.5 13.6034 14.9013 0 
34 1 0.376733 79.5 6.31418 15.2064 0 
76 1 0.376361 79.5 6.88838 15.2141 0 
56 1 0.417661 79.5 7.45829 15.1766 0 
231 1 0.418206 79.5 7.98675 15.1627 0 
150 1 0.42017 79.5 8.51444 15.1748 0 
14 1 0.378044 79.5 9.03366 15.2219 0 
74 1 0.418792 79.5 9.54241 15.2853 0 
250 1 0.419005 79.5 10.0554 15.3676 0 
144 1 0.417225 79.5 10.5667 15.4067 0 
131 1 0.37743 79.5 11.1667 15.3647 0 
104 1 0.417492 79.5 11.6524 15.3317 0 
81 1 0.377631 79.5 12.1771 15.3659 0 
57 1 0.417312 79.5 12.7014 15.3825 0 
16 1 0.418857 79.5 13.2677 15.4042 0 
277 1 0.378085 79.5 13.8468 15.4401 0 
279 1 0.419009 79.5 5.44436 15.8804 0 
292 1 0.419322 79.5 6.04483 15.6978 0 
249 1 0.37714 79.5 6.63697 15.683 0 
251 1 0.418401 79.5 7.20974 15.6347 0 
103 1 0.376732 79.5 7.72887 15.6351 0 
36 1 0.41802 79.5 8.21947 15.6181 0 
128 1 0.417636 79.5 8.72442 15.6237 0 
226 1 0.418002 79.5 9.2099 15.6621 0 
91 1 0.375891 79.5 9.66764 15.7332 0 
93 1 0.375858 79.5 10.0788 15.8148 0 
234 1 0.376567 79.5 10.4859 15.8324 0 
149 1 0.420339 79.5 10.9397 15.7636 0 
20 1 0.418644 79.5 11.4268 15.7788 0 
109 1 0.416555 79.5 11.9245 15.7805 0 
239 1 0.376202 79.5 12.4214 15.8187 0 
6 1 0.41784 79.5 12.938 15.8551 0 
98 1 0.376685 79.5 13.4817 15.893 0 
236 1 0.417091 79.5 14.1209 15.9208 0 
211 1 0.376915 79.5 5.90112 16.2431 0 
180 1 0.4178 79.5 6.41095 16.1701 0 
62 1 0.419478 79.5 6.97726 16.0801 0 
147 1 0.378206 79.5 7.49771 16.0606 0 
273 1 0.375407 79.5 7.9774 16.0529 0 
113 1 0.376209 79.5 8.23364 16.4424 0 
247 1 0.417974 79.5 8.45724 16.0481 0 
48 1 0.417895 79.5 8.9317 16.0678 0 
53 1 0.418687 79.5 9.3995 16.1069 0 
275 1 0.375236 79.5 9.84238 16.1734 0 
214 1 0.375802 79.5 10.2709 16.2194 0 
18 1 0.417229 79.5 10.7243 16.1951 0 
278 1 0.377425 79.5 11.187 16.1837 0 
72 1 0.418442 79.5 11.6575 16.2043 0 
86 1 0.418347 79.5 12.1467 16.2275 0 
110 1 0.376982 79.5 12.6333 16.2599 0 
295 1 0.376364 79.5 13.1423 16.3018 0 
112 1 0.37724 79.5 13.695 16.3271 0 
256 1 0.417029 79.5 14.3221 16.4369 0 
61 1 0.416969 79.5 5.18191 16.4638 0 
257 1 0.417584 79.5 5.71043 16.7107 0 
264 1 0.375728 79.5 6.23033 16.7099 0 
100 1 0.41738 79.5 6.77154 16.5284 0 
223 1 0.377582 79.5 7.28012 16.4811 0 
13 1 0.376492 79.5 7.53414 16.8615 0 
85 1 0.378114 79.5 7.75357 16.4519 0 
52 1 0.417492 79.5 8.01097 16.8271 0 
44 1 0.376441 79.5 8.6918 16.4621 0 
196 1 0.417674 79.5 8.48412 16.8415 0 
281 1 0.419313 79.5 9.13432 16.5007 0 
67 1 0.375259 79.5 8.91725 16.8833 0 
259 1 0.416952 79.5 9.59419 16.5329 0 
207 1 0.375123 79.5 10.0382 16.5713 0 
299 1 0.376562 79.5 10.4799 16.5837 0 
153 1 0.418903 79.5 10.9454 16.5738 0 
237 1 0.377021 79.5 11.4005 16.5825 0 
289 1 0.377045 79.5 11.8602 16.6153 0 
193 1 0.377638 79.5 12.3412 16.6447 0 
303 1 0.377701 79.5 12.8223 16.6768 0 
203 1 0.418748 79.5 13.3476 16.733 0 
43 1 0.416658 79.5 13.887 16.7861 0 
66 1 0.417743 79.5 14.9026 16.603 0 
90 1 0.418215 79.5 4.73873 16.9557 0 
70 1 0.418537 79.5 5.32907 17.0872 0 
88 1 0.377633 79.5 5.9124 17.1794 0 
124 1 0.377489 79.5 6.61925 16.9609 0 
136 1 0.377551 79.5 6.35625 17.3084 0 
111 1 0.377387 79.5 7.08539 16.9074 0 
64 1 0.37804 79.5 7.31698 17.2876 0 
162 1 0.417925 79.5 7.79159 17.2258 0 
197 1 0.418138 79.5 8.26374 17.2289 0 
168 1 0.377281 79.5 8.70831 17.2499 0 
202 1 0.416907 79.5 9.13464 17.2835 0 
204 1 0.417908 79.5 9.35577 16.913 0 
143 1 0.378123 79.5 9.56542 17.3118 0 
73 1 0.418056 79.5 9.79866 16.9398 0 
40 1 0.417655 79.5 9.99806 17.3249 0 
134 1 0.377548 79.5 10.2348 16.9369 0 
39 1 0.417739 79.5 10.4261 17.3086 0 
119 1 0.418318 79.5 10.6844 16.9539 0 
242 1 0.419369 79.5 11.1412 16.9659 0 
31 1 0.376295 79.5 11.5838 16.9674 0 
2 1 0.418632 79.5 12.0558 17.0137 0 
35 1 0.375085 79.5 12.5302 17.0424 0 
126 1 0.377564 79.5 13.007 17.0869 0 
297 1 0.418019 79.5 13.5166 17.2025 0 
167 1 0.376423 79.5 14.004 17.2567 0 
105 1 0.378261 79.5 14.435 16.9815 0 
158 1 0.378408 79.5 15.0914 17.1907 0 
265 1 0.4186 79.5 4.36068 17.5601 0 
183 1 0.418934 79.5 4.98011 17.5368 0 
254 1 0.418928 79.5 5.56465 17.5785 0 
7 1 0.376836 79.5 6.07515 17.6749 0 
25 1 0.418251 79.5 6.57798 17.7337 0 
54 1 0.417762 79.5 6.86922 17.3523 0 
232 1 0.41966 79.5 7.08474 17.7745 0 
152 1 0.419353 79.5 7.58423 17.6231 0 
170 1 0.419066 79.5 8.04716 17.6191 0 
177 1 0.417786 79.5 8.49839 17.6247 0 
224 1 0.417151 79.5 8.9244 17.6605 0 
99 1 0.418162 79.5 9.355 17.6806 0 
125 1 0.417497 79.5 9.77941 17.6966 0 
151 1 0.377236 79.5 10.194 17.7043 0 
106 1 0.418321 79.5 10.609 17.6827 0 
233 1 0.376541 79.5 10.8738 17.3337 0 
46 1 0.377328 79.5 11.0455 17.6909 0 
65 1 0.375901 79.5 11.3056 17.3382 0 
268 1 0.418081 79.5 11.4882 17.6966 0 
181 1 0.377496 79.5 11.7507 17.3377 0 
164 1 0.419166 79.5 11.9491 17.7058 0 
23 1 0.377532 79.5 12.2511 17.4048 0 
291 1 0.418671 79.5 12.7062 17.4567 0 
269 1 0.377027 79.5 13.1617 17.5077 0 
130 1 0.41741 79.5 13.6706 17.6912 0 
182 1 0.376421 79.5 14.1633 17.6698 0 
244 1 0.377185 79.5 14.6106 17.4584 0 
263 1 0.375892 79.5 4.68021 18.047 0 
4 1 0.418796 79.5 5.22766 18.0332 0 
1 1 0.416656 79.5 5.76939 18.06 0 
219 1 0.416465 79.5 6.28062 18.1228 0 
294 1 0.420196 79.5 6.77014 18.169 0 
175 1 0.375285 79.5 7.45604 18.0047 0 
189 1 0.374207 79.5 7.87881 18.0012 0 
188 1 0.417316 79.5 8.30536 18.0104 0 
201 1 0.37868 79.5 8.72857 18.0253 0 
222 1 0.376423 79.5 9.14132 18.0378 0 
51 1 0.378133 79.5 9.56107 18.0524 0 
228 1 0.377094 79.5 9.96627 18.0654 0 
280 1 0.376116 79.5 10.3665 18.0551 0 
198 1 0.418579 79.5 10.7961 18.0533 0 
102 1 0.419434 79.5 11.2316 18.0615 0 
190 1 0.417687 79.5 11.6722 18.0801 0 
255 1 0.419607 79.5 12.1209 18.0997 0 
10 1 0.377297 79.5 12.4221 17.8134 0 
115 1 0.377962 79.5 12.8393 17.8907 0 
208 1 0.376279 79.5 13.2673 17.9121 0 
191 1 0.419678 79.5 13.9871 18.1129 0 
179 1 0.419049 79.5 14.5229 17.9952 0 
286 1 0.417076 79.5 15.0772 17.7878 0 
84 1 0.417941 79.5 4.24828 18.4488 0 
298 1 0.374614 79.5 4.90525 18.5136 0 
260 1 0.417822 79.5 5.47837 18.4881 0 
157 1 0.417922 79.5 5.9937 18.5181 0 
243 1 0.376024 79.5 6.48261 18.5571 0 
217 1 0.420187 79.5 6.93328 18.632 0 
117 1 0.376414 79.5 7.19288 18.2901 0 
210 1 0.417016 79.5 7.66641 18.3658 0 
75 1 0.376447 79.5 8.09647 18.3725 0 
97 1 0.377275 79.5 8.51931 18.3781 0 
132 1 0.378247 79.5 8.92291 18.3787 0 
213 1 0.418946 79.5 9.3487 18.3926 0 
261 1 0.377169 79.5 9.75005 18.413 0 
287 1 0.378509 79.5 10.1397 18.4117 0 
92 1 0.417624 79.5 10.554 18.4061 0 
178 1 0.415965 79.5 10.9856 18.4236 0 
22 1 0.376996 79.5 11.4076 18.4344 0 
155 1 0.37768 79.5 11.8217 18.4519 0 
9 1 0.378113 79.5 12.2372 18.4799 0 
240 1 0.417923 79.5 12.6025 18.2719 0 
274 1 0.37582 79.5 13.0539 18.288 0 
241 1 0.375449 79.5 13.5347 18.2304 0 
272 1 0.378957 79.5 13.3359 18.6234 0 
79 1 0.376387 79.5 13.8209 18.5706 0 
107 1 0.375813 79.5 14.3067 18.4834 0 
160 1 0.418475 79.5 14.8509 18.3732 0 
173 1 0.377039 79.5 15.4202 18.2352 0 
258 1 0.419432 79.5 4.5388 18.9701 0 
212 1 0.41762 79.5 5.21017 18.9151 0 
169 1 0.378453 79.5 5.73128 18.931 0 
200 1 0.417021 79.5 6.21525 18.9496 0 
186 1 0.417704 79.5 6.68913 18.9989 0 
245 1 0.376779 79.5 7.15752 19.0482 0 
42 1 0.418538 79.5 7.39169 18.6937 0 
163 1 0.376966 79.5 7.86605 18.7277 0 
122 1 0.41785 79.5 7.61812 19.0696 0 
184 1 0.417741 79.5 8.29449 18.7355 0 
129 1 0.417621 79.5 8.06044 19.0996 0 
108 1 0.37715 79.5 8.70553 18.7333 0 
15 1 0.377305 79.5 8.49255 19.0968 0 
59 1 0.419658 79.5 9.11354 18.7379 0 
94 1 0.419162 79.5 9.32011 19.101 0 
118 1 0.41851 79.5 8.89221 19.0979 0 
140 1 0.378892 79.5 9.5345 18.7632 0 
68 1 0.37735 79.5 9.91638 18.7604 0 
276 1 0.417911 79.5 10.1072 19.1077 0 
192 1 0.418338 79.5 10.3323 18.76 0 
58 1 0.415805 79.5 10.7484 18.7819 0 
262 1 0.418034 79.5 11.1729 18.7938 0 
229 1 0.41843 79.5 11.5901 18.8052 0 
127 1 0.417806 79.5 12.0181 18.8201 0 
101 1 0.376457 79.5 12.4836 18.7679 0 
80 1 0.376209 79.5 12.8762 18.6679 0 
29 1 0.417393 79.5 13.1496 19.0325 0 
24 1 0.416559 79.5 13.624 18.9884 0 
185 1 0.37559 79.5 14.1011 18.9293 0 
176 1 0.376448 79.5 14.6034 18.8553 0 
238 1 0.417818 79.5 15.1608 18.7861 0 
146 1 0.418691 79.5 15.8023 18.7063 0 
120 1 0.378184 79.5 4.15744 19.4491 0 
33 1 0.378072 79.5 4.93886 19.3147 0 
71 1 0.377916 79.5 5.48715 19.3351 0 
135 1 0.377153 79.5 5.96072 19.352 0 
148 1 0.418606 79.5 6.43697 19.382 0 
199 1 0.417759 79.5 6.92023 19.4044 0 
166 1 0.418977 79.5 7.39235 19.4338 0 
63 1 0.377654 79.5 7.82921 19.4522 0 
218 1 0.418811 79.5 8.28304 19.4546 0 
12 1 0.37772 79.5 8.68925 19.4568 0 
296 1 0.418792 79.5 9.10535 19.4571 0 
69 1 0.376926 79.5 9.71431 19.123 0 
121 1 0.418093 79.5 9.5193 19.4776 0 
87 1 0.377593 79.5 9.91477 19.466 0 
293 1 0.417075 79.5 10.3229 19.4557 0 
216 1 0.376432 79.5 10.5279 19.1163 0 
47 1 0.418289 79.5 10.74 19.4574 0 
230 1 0.376846 79.5 10.9509 19.1246 0 
41 1 0.375472 79.5 11.3529 19.152 0 
283 1 0.377483 79.5 11.1371 19.4826 0 
209 1 0.419672 79.5 11.5573 19.4924 0 
302 1 0.377055 79.5 11.785 19.1601 0 
49 1 0.419815 79.5 12.0153 19.4922 0 
26 1 0.417817 79.5 12.2682 19.1526 0 
45 1 0.41618 79.5 12.7144 19.1128 0 
288 1 0.377512 79.5 12.4891 19.4948 0 
3 1 0.376593 79.5 12.9432 19.464 0 
221 1 0.419252 79.5 13.4009 19.4182 0 
266 1 0.376034 79.5 13.8753 19.3705 0 
174 1 0.419338 79.5 14.3744 19.3117 0 
30 1 0.376677 79.5 14.8931 19.2611 0 
267 1 0.418107 79.5 15.4778 19.217 0 
50 1 0.378881 79.5 4.6395 19.7045 0 
123 1 0.416947 79.5 5.20457 19.7368 0 
252 1 0.378093 79.5 5.71266 19.7575 0 
21 1 0.420824 79.5 6.18851 19.7742 0 
301 1 0.41979 79.5 6.68065 19.7902 0 
161 1 0.416955 79.5 7.1587 19.795 0 
32 1 0.375477 79.5 7.61429 19.8133 0 
194 1 0.416887 79.5 8.04792 19.7995 0 
38 1 0.377736 79.5 8.4793 19.8163 0 
145 1 0.419666 79.5 8.8869 19.8062 0 
27 1 0.375782 79.5 9.31164 19.82 0 
8 1 0.378024 79.5 9.71163 19.8229 0 
253 1 0.415824 79.5 10.1082 19.8092 0 
133 1 0.418748 79.5 10.5266 19.8119 0 
285 1 0.37676 79.5 10.9321 19.8189 0 
284 1 0.376238 79.5 11.3338 19.8209 0 
89 1 0.376485 79.5 11.7799 19.8213 0 
11 1 0.377588 79.5 12.2455 19.8175 0 
114 1 0.376368 79.5 12.7107 19.815 0 
220 1 0.375738 79.5 13.1702 19.8103 0 
17 1 0.37517 79.5 13.6427 19.7887 0 
165 1 0.417616 79.5 14.1297 19.7576 0 
282 1 0.416306 79.5 14.6568 19.7308 0 
171 1 0.417726 79.5 15.2045 19.6969 0 
83 1 0.419111 79.5 15.8676 19.623 0 
