# LAMMPS data file for rigid bodies

303 atoms

1 atom types

0.0 	 20.0 	 xlo xhi 
0.0 	 20.0 	 ylo yhi 
-1.0 	 1.0 	 zlo zhi 

Atoms

141 1 0.417537 79.5 8.63881 13.6916 0 
154 1 0.377463 79.5 9.2975 13.7409 0 
248 1 0.417624 79.5 10.4351 13.4742 0 
159 1 0.418141 79.5 11.0962 13.627 0 
116 1 0.418074 79.5 7.8942 13.8821 0 
156 1 0.41736 79.5 8.94894 14.2147 0 
290 1 0.417552 79.5 9.87838 13.8254 0 
142 1 0.376502 79.5 10.4365 14.0398 0 
77 1 0.416408 79.5 10.9633 14.1841 0 
5 1 0.417956 79.5 11.7157 13.9063 0 
139 1 0.377813 79.5 12.3723 14.112 0 
211 1 0.376915 79.5 6.82766 14.5953 0 
187 1 0.376835 79.5 7.53544 14.3745 0 
271 1 0.419038 79.5 8.35954 14.236 0 
78 1 0.376793 79.5 8.02785 14.6504 0 
206 1 0.377502 79.5 9.50004 14.2874 0 
138 1 0.417163 79.5 10.0242 14.4004 0 
246 1 0.419558 79.5 10.5543 14.5636 0 
82 1 0.37548 79.5 11.4429 14.3994 0 
195 1 0.376076 79.5 11.956 14.4988 0 
95 1 0.378511 79.5 12.5076 14.6669 0 
76 1 0.376361 79.5 6.42294 15.0377 0 
300 1 0.417817 79.5 7.305 14.8807 0 
74 1 0.418792 79.5 7.78076 15.0918 0 
172 1 0.377906 79.5 8.34163 15.0727 0 
137 1 0.377547 79.5 8.63671 14.6811 0 
235 1 0.417949 79.5 9.16935 14.718 0 
215 1 0.417318 79.5 9.67301 14.8074 0 
225 1 0.418808 79.5 10.1828 14.929 0 
270 1 0.377661 79.5 10.6659 15.0655 0 
131 1 0.37743 79.5 11.0464 14.7322 0 
28 1 0.376324 79.5 11.5591 14.8868 0 
104 1 0.417492 79.5 12.0729 15.0154 0 
277 1 0.378085 79.5 13.04 14.8073 0 
19 1 0.377048 79.5 13.5699 15.0701 0 
34 1 0.376733 79.5 5.94732 15.4251 0 
56 1 0.417661 79.5 6.95222 15.2979 0 
249 1 0.37714 79.5 7.44879 15.4808 0 
231 1 0.418206 79.5 8.07053 15.4904 0 
226 1 0.418002 79.5 8.5709 15.5392 0 
227 1 0.419731 79.5 8.86424 15.136 0 
55 1 0.377258 79.5 9.35196 15.2145 0 
250 1 0.419005 79.5 9.83037 15.2976 0 
96 1 0.375974 79.5 10.3097 15.4087 0 
144 1 0.417225 79.5 10.7824 15.5258 0 
20 1 0.418644 79.5 11.1675 15.2098 0 
109 1 0.416555 79.5 11.6687 15.3787 0 
86 1 0.418347 79.5 12.1513 15.5336 0 
60 1 0.378985 79.5 12.5793 15.2007 0 
205 1 0.417837 79.5 13.0827 15.3944 0 
236 1 0.417091 79.5 14.1346 15.3799 0 
292 1 0.419322 79.5 5.44525 15.8816 0 
61 1 0.416969 79.5 6.04831 15.9967 0 
279 1 0.419009 79.5 6.51699 15.6159 0 
103 1 0.376732 79.5 7.10567 15.8317 0 
150 1 0.42017 79.5 7.74803 15.8585 0 
36 1 0.41802 79.5 8.2642 15.9446 0 
113 1 0.376209 79.5 8.73763 15.9807 0 
37 1 0.376521 79.5 9.04949 15.5934 0 
91 1 0.375891 79.5 9.50745 15.6598 0 
14 1 0.378044 79.5 9.9701 15.7434 0 
234 1 0.376567 79.5 10.427 15.8438 0 
72 1 0.418442 79.5 10.9008 15.981 0 
149 1 0.420339 79.5 11.2853 15.697 0 
193 1 0.377638 79.5 11.7477 15.8719 0 
6 1 0.41784 79.5 12.6352 15.7237 0 
112 1 0.37724 79.5 13.1026 15.941 0 
57 1 0.417312 79.5 13.5816 15.671 0 
256 1 0.417029 79.5 14.0993 15.9804 0 
251 1 0.418401 79.5 6.5854 16.1306 0 
223 1 0.377582 79.5 7.02923 16.2928 0 
62 1 0.419478 79.5 7.48929 16.2515 0 
273 1 0.375407 79.5 7.97168 16.311 0 
44 1 0.376441 79.5 8.43969 16.3661 0 
281 1 0.419313 79.5 8.88545 16.4099 0 
128 1 0.417636 79.5 9.1983 16.0257 0 
93 1 0.375858 79.5 9.6516 16.0784 0 
275 1 0.375236 79.5 10.0985 16.1535 0 
207 1 0.375123 79.5 10.5458 16.2562 0 
278 1 0.377425 79.5 11.0115 16.4032 0 
239 1 0.376202 79.5 11.3751 16.157 0 
110 1 0.376982 79.5 11.8006 16.3288 0 
81 1 0.377631 79.5 12.1948 16.0091 0 
303 1 0.377701 79.5 12.2301 16.4423 0 
295 1 0.376364 79.5 12.6497 16.211 0 
203 1 0.418748 79.5 13.1079 16.4358 0 
16 1 0.418857 79.5 13.5879 16.2274 0 
66 1 0.417743 79.5 14.5999 16.2772 0 
180 1 0.4178 79.5 5.06302 16.4633 0 
100 1 0.41738 79.5 5.68751 16.449 0 
54 1 0.417762 79.5 6.24377 16.5353 0 
147 1 0.378206 79.5 6.74323 16.6536 0 
111 1 0.377387 79.5 7.25747 16.6863 0 
85 1 0.378114 79.5 7.70901 16.6884 0 
247 1 0.417974 79.5 8.16522 16.7335 0 
52 1 0.417492 79.5 8.61404 16.7997 0 
197 1 0.418138 79.5 9.05559 16.8504 0 
259 1 0.416952 79.5 9.33778 16.4642 0 
53 1 0.418687 79.5 9.77809 16.4955 0 
18 1 0.417229 79.5 10.224 16.5689 0 
153 1 0.418903 79.5 10.663 16.6742 0 
214 1 0.375802 79.5 11.0788 16.8204 0 
289 1 0.377045 79.5 11.4281 16.5979 0 
237 1 0.377021 79.5 11.8027 16.7771 0 
291 1 0.418671 79.5 12.237 16.8718 0 
35 1 0.375085 79.5 12.6669 16.6674 0 
126 1 0.377564 79.5 13.5648 16.7454 0 
98 1 0.376685 79.5 14.0422 16.5418 0 
105 1 0.378261 79.5 14.4812 16.8631 0 
182 1 0.376421 79.5 15.0456 16.6838 0 
90 1 0.418215 79.5 4.6392 17.004 0 
264 1 0.375728 79.5 5.40624 16.9271 0 
257 1 0.417584 79.5 5.93744 16.965 0 
7 1 0.376836 79.5 6.45065 17.0158 0 
88 1 0.377633 79.5 6.98837 17.0403 0 
136 1 0.377551 79.5 7.47015 17.0804 0 
196 1 0.417674 79.5 7.91561 17.1173 0 
124 1 0.377489 79.5 8.36906 17.1658 0 
64 1 0.37804 79.5 8.79922 17.2159 0 
168 1 0.377281 79.5 9.22137 17.2589 0 
48 1 0.417895 79.5 9.49128 16.896 0 
67 1 0.375259 79.5 9.63205 17.2987 0 
73 1 0.418056 79.5 9.92131 16.9172 0 
202 1 0.416907 79.5 10.0521 17.3154 0 
134 1 0.377548 79.5 10.3531 16.9798 0 
299 1 0.376562 79.5 10.7943 17.0854 0 
242 1 0.419369 79.5 11.3873 17.0864 0 
10 1 0.377297 79.5 11.8068 17.1931 0 
2 1 0.418632 79.5 12.2373 17.3051 0 
167 1 0.376423 79.5 12.6663 17.111 0 
43 1 0.416658 79.5 13.1061 16.9247 0 
158 1 0.378408 79.5 13.534 17.2305 0 
244 1 0.377185 79.5 13.9881 17.0494 0 
286 1 0.417076 79.5 14.97 17.2493 0 
263 1 0.375892 79.5 4.71635 17.7619 0 
70 1 0.418537 79.5 5.09206 17.3586 0 
254 1 0.418928 79.5 5.65216 17.4251 0 
1 1 0.416656 79.5 6.16951 17.4368 0 
25 1 0.418251 79.5 6.71104 17.4054 0 
232 1 0.41966 79.5 7.21584 17.4498 0 
13 1 0.376492 79.5 7.66685 17.4979 0 
162 1 0.417925 79.5 8.11307 17.5311 0 
177 1 0.417786 79.5 8.5466 17.578 0 
204 1 0.417908 79.5 8.97328 17.6203 0 
125 1 0.417497 79.5 9.39148 17.6589 0 
39 1 0.417739 79.5 9.80719 17.6933 0 
40 1 0.417655 79.5 10.231 17.6942 0 
119 1 0.418318 79.5 10.5 17.3579 0 
198 1 0.418579 79.5 10.6879 17.7296 0 
102 1 0.419434 79.5 11.0181 17.423 0 
106 1 0.418321 79.5 11.4428 17.5252 0 
46 1 0.377328 79.5 11.8579 17.6006 0 
23 1 0.377532 79.5 12.2696 17.7121 0 
269 1 0.377027 79.5 12.663 17.5395 0 
240 1 0.417923 79.5 13.0907 17.3996 0 
115 1 0.377962 79.5 13.4876 17.7088 0 
297 1 0.418019 79.5 13.9378 17.554 0 
179 1 0.419049 79.5 14.4292 17.4022 0 
173 1 0.377039 79.5 15.3649 17.6616 0 
265 1 0.4186 79.5 5.33099 17.853 0 
219 1 0.416465 79.5 5.8889 17.9051 0 
243 1 0.376024 79.5 6.25707 18.1948 0 
157 1 0.417922 79.5 6.46688 17.8121 0 
117 1 0.376414 79.5 6.72989 18.2174 0 
294 1 0.420196 79.5 6.96003 17.8307 0 
175 1 0.375285 79.5 7.43251 17.8641 0 
170 1 0.419066 79.5 7.87724 17.9021 0 
201 1 0.37868 79.5 8.31916 17.9444 0 
143 1 0.378123 79.5 8.74097 17.9767 0 
222 1 0.376423 79.5 9.15902 18.0146 0 
228 1 0.377094 79.5 9.55987 18.0492 0 
51 1 0.378133 79.5 9.96982 18.0641 0 
140 1 0.378892 79.5 10.3781 18.0593 0 
280 1 0.376116 79.5 10.7924 18.1107 0 
268 1 0.418081 79.5 11.1209 17.8701 0 
151 1 0.377236 79.5 11.5321 17.9371 0 
233 1 0.376541 79.5 11.9225 17.9955 0 
65 1 0.375901 79.5 12.3007 18.0933 0 
181 1 0.377496 79.5 12.6804 17.9551 0 
31 1 0.376295 79.5 13.0774 17.8513 0 
185 1 0.37559 79.5 13.3926 18.1806 0 
130 1 0.41741 79.5 13.8354 18.0592 0 
241 1 0.375449 79.5 14.3012 17.9301 0 
107 1 0.375813 79.5 14.7962 17.8038 0 
174 1 0.419338 79.5 15.1734 18.2183 0 
160 1 0.418475 79.5 15.7815 18.1474 0 
84 1 0.417941 79.5 4.38293 18.2408 0 
4 1 0.418796 79.5 4.99301 18.2776 0 
183 1 0.418934 79.5 5.55049 18.3263 0 
260 1 0.417822 79.5 5.98025 18.542 0 
217 1 0.420187 79.5 6.4865 18.5938 0 
186 1 0.417704 79.5 6.95875 18.6301 0 
152 1 0.419353 79.5 7.19016 18.24 0 
42 1 0.418538 79.5 7.4201 18.6624 0 
224 1 0.417151 79.5 7.63828 18.2781 0 
99 1 0.418162 79.5 8.07684 18.3112 0 
210 1 0.417016 79.5 8.50652 18.3352 0 
213 1 0.418946 79.5 8.92901 18.3589 0 
261 1 0.377169 79.5 9.33391 18.3885 0 
287 1 0.378509 79.5 9.72228 18.4044 0 
68 1 0.37735 79.5 10.1154 18.4123 0 
262 1 0.418034 79.5 10.5244 18.4237 0 
230 1 0.376846 79.5 10.9414 18.4526 0 
178 1 0.415965 79.5 11.2973 18.2896 0 
190 1 0.417687 79.5 11.7119 18.3476 0 
80 1 0.376209 79.5 12.1102 18.424 0 
255 1 0.419607 79.5 12.5732 18.3974 0 
208 1 0.376279 79.5 12.9805 18.2871 0 
272 1 0.378957 79.5 13.2303 18.6274 0 
274 1 0.37582 79.5 13.6735 18.5325 0 
79 1 0.376387 79.5 14.1367 18.4346 0 
191 1 0.419678 79.5 14.628 18.3229 0 
258 1 0.419432 79.5 4.08252 18.7994 0 
298 1 0.374614 79.5 4.72992 18.7402 0 
212 1 0.41762 79.5 5.27782 18.7729 0 
71 1 0.377916 79.5 5.74029 18.9287 0 
199 1 0.417759 79.5 6.23275 18.9803 0 
200 1 0.417021 79.5 6.71067 19.0176 0 
188 1 0.417316 79.5 7.18198 19.0431 0 
163 1 0.376966 79.5 7.61958 19.0517 0 
189 1 0.374207 79.5 7.85276 18.6791 0 
129 1 0.417621 79.5 8.03849 19.0556 0 
97 1 0.377275 79.5 8.27518 18.6919 0 
59 1 0.419658 79.5 8.46493 19.0619 0 
75 1 0.376447 79.5 8.69374 18.7155 0 
15 1 0.377305 79.5 8.87344 19.0801 0 
132 1 0.378247 79.5 9.09076 18.7321 0 
118 1 0.41851 79.5 9.27035 19.0938 0 
108 1 0.37715 79.5 9.48053 18.7475 0 
12 1 0.37772 79.5 9.66715 19.1108 0 
94 1 0.419162 79.5 9.87618 18.7721 0 
92 1 0.417624 79.5 10.2912 18.7685 0 
192 1 0.418338 79.5 10.7271 18.7848 0 
41 1 0.375472 79.5 11.1225 18.7814 0 
229 1 0.41843 79.5 11.5088 18.7128 0 
22 1 0.376996 79.5 11.9166 18.7611 0 
58 1 0.415805 79.5 11.71 19.1072 0 
164 1 0.419166 79.5 12.3492 18.7705 0 
9 1 0.378113 79.5 12.8136 18.7372 0 
17 1 0.37517 79.5 12.588 19.0992 0 
101 1 0.376457 79.5 13.0475 19.0639 0 
29 1 0.417393 79.5 13.4936 18.9813 0 
24 1 0.416559 79.5 13.9713 18.9042 0 
127 1 0.417806 79.5 14.4564 18.8309 0 
238 1 0.417818 79.5 14.9775 18.753 0 
176 1 0.376448 79.5 15.5349 18.6948 0 
169 1 0.378453 79.5 4.47426 19.2107 0 
148 1 0.418606 79.5 5.00153 19.2266 0 
33 1 0.378072 79.5 5.49425 19.3094 0 
21 1 0.420824 79.5 5.98634 19.3658 0 
135 1 0.377153 79.5 6.47837 19.401 0 
166 1 0.418977 79.5 6.9375 19.4204 0 
245 1 0.376779 79.5 7.39967 19.424 0 
122 1 0.41785 79.5 7.816 19.4424 0 
184 1 0.417741 79.5 8.24187 19.4494 0 
218 1 0.418811 79.5 8.65929 19.4392 0 
87 1 0.377593 79.5 9.05708 19.4469 0 
296 1 0.418792 79.5 9.45134 19.4697 0 
69 1 0.376926 79.5 10.0772 19.12 0 
121 1 0.418093 79.5 9.86139 19.4556 0 
47 1 0.418289 79.5 10.2753 19.4647 0 
276 1 0.417911 79.5 10.4986 19.1242 0 
293 1 0.417075 79.5 10.7164 19.4725 0 
216 1 0.376432 79.5 10.9193 19.1325 0 
89 1 0.376485 79.5 11.1115 19.4769 0 
283 1 0.377483 79.5 11.3052 19.1171 0 
209 1 0.419672 79.5 11.5095 19.4758 0 
302 1 0.377055 79.5 11.9273 19.4745 0 
155 1 0.37768 79.5 12.1302 19.1226 0 
26 1 0.417817 79.5 12.3625 19.4642 0 
165 1 0.417616 79.5 12.8222 19.4396 0 
266 1 0.376034 79.5 13.2946 19.4052 0 
221 1 0.419252 79.5 13.7699 19.3593 0 
30 1 0.376677 79.5 14.2495 19.3123 0 
171 1 0.417726 79.5 14.7432 19.2634 0 
267 1 0.418107 79.5 15.2951 19.2096 0 
146 1 0.418691 79.5 15.9205 19.1764 0 
120 1 0.378184 79.5 4.12394 19.627 0 
50 1 0.378881 79.5 4.70039 19.6979 0 
123 1 0.416947 79.5 5.21721 19.7238 0 
161 1 0.416955 79.5 5.72737 19.7606 0 
194 1 0.416887 79.5 6.24166 19.7784 0 
252 1 0.378093 79.5 6.71523 19.7989 0 
301 1 0.41979 79.5 7.18532 19.7929 0 
32 1 0.375477 79.5 7.62511 19.8135 0 
63 1 0.377654 79.5 8.04603 19.8149 0 
38 1 0.377736 79.5 8.45754 19.8154 0 
145 1 0.419666 79.5 8.87029 19.8007 0 
8 1 0.378024 79.5 9.26828 19.8201 0 
27 1 0.375782 79.5 9.65756 19.8209 0 
253 1 0.415824 79.5 10.06 19.8149 0 
133 1 0.418748 79.5 10.4892 19.815 0 
284 1 0.376238 79.5 10.9014 19.8213 0 
285 1 0.37676 79.5 11.2942 19.8198 0 
11 1 0.377588 79.5 11.7134 19.8183 0 
288 1 0.377512 79.5 12.1357 19.8159 0 
114 1 0.376368 79.5 12.5862 19.8145 0 
49 1 0.419815 79.5 13.0621 19.793 0 
45 1 0.41618 79.5 13.5407 19.7805 0 
282 1 0.416306 79.5 14.0341 19.7592 0 
3 1 0.376593 79.5 14.5132 19.7335 0 
83 1 0.419111 79.5 15.0299 19.7082 0 
220 1 0.375738 79.5 15.5911 19.6778 0 
