# LAMMPS data file for rigid bodies

303 atoms

1 atom types

0.0 	 20.0 	 xlo xhi 
0.0 	 20.0 	 ylo yhi 
-1.0 	 1.0 	 zlo zhi 

Atoms

248 1 0.417624 79.5 9.53045 13.5714 0 
290 1 0.417552 79.5 10.3427 13.5731 0 
142 1 0.376502 79.5 11.2878 13.7361 0 
76 1 0.376361 79.5 7.50379 14.192 0 
116 1 0.418074 79.5 8.0909 13.8363 0 
78 1 0.376793 79.5 8.53821 14.2011 0 
141 1 0.417537 79.5 8.95415 13.8249 0 
156 1 0.41736 79.5 9.43638 14.2003 0 
154 1 0.377463 79.5 9.93945 13.9938 0 
215 1 0.417318 79.5 10.7624 13.9979 0 
5 1 0.417956 79.5 11.8172 14.0722 0 
211 1 0.376915 79.5 6.9867 14.5368 0 
271 1 0.419038 79.5 8.02578 14.4654 0 
172 1 0.377906 79.5 8.9825 14.475 0 
137 1 0.377547 79.5 9.87562 14.5451 0 
206 1 0.377502 79.5 10.3273 14.3214 0 
246 1 0.419558 79.5 10.7546 14.5963 0 
138 1 0.417163 79.5 11.2468 14.3325 0 
195 1 0.376076 79.5 12.1492 14.5368 0 
139 1 0.377813 79.5 12.6409 14.2808 0 
187 1 0.376835 79.5 6.48894 14.9198 0 
61 1 0.416969 79.5 7.07658 15.1045 0 
56 1 0.417661 79.5 7.54685 14.7817 0 
249 1 0.37714 79.5 8.04514 15.0215 0 
300 1 0.417817 79.5 8.50876 14.7395 0 
227 1 0.419731 79.5 8.97726 15.0061 0 
235 1 0.417949 79.5 9.42221 14.7667 0 
250 1 0.419005 79.5 9.83451 15.0665 0 
55 1 0.377258 79.5 10.2877 14.8415 0 
77 1 0.416408 79.5 11.1632 14.9162 0 
159 1 0.418141 79.5 11.6509 14.702 0 
28 1 0.376324 79.5 12.0401 15.0702 0 
205 1 0.417837 79.5 12.5626 14.8946 0 
82 1 0.37548 79.5 13.1072 14.692 0 
277 1 0.378085 79.5 13.5369 15.0808 0 
34 1 0.376733 79.5 6.02652 15.3639 0 
180 1 0.4178 79.5 6.63311 15.4743 0 
103 1 0.376732 79.5 7.60284 15.3091 0 
150 1 0.42017 79.5 8.08051 15.5275 0 
231 1 0.418206 79.5 8.51925 15.2557 0 
74 1 0.418792 79.5 8.97817 15.5082 0 
37 1 0.376521 79.5 9.40811 15.2998 0 
109 1 0.416555 79.5 10.2399 15.3479 0 
225 1 0.418808 79.5 10.6925 15.1355 0 
270 1 0.377661 79.5 11.0797 15.4279 0 
104 1 0.417492 79.5 11.5536 15.2481 0 
81 1 0.377631 79.5 11.9377 15.5565 0 
60 1 0.378985 79.5 12.4188 15.4082 0 
95 1 0.378511 79.5 12.9686 15.2548 0 
19 1 0.377048 79.5 13.9479 15.4954 0 
292 1 0.419322 79.5 5.53983 15.8083 0 
223 1 0.377582 79.5 6.25789 15.8629 0 
147 1 0.378206 79.5 6.78523 15.9951 0 
251 1 0.418401 79.5 7.16938 15.6378 0 
62 1 0.419478 79.5 7.66091 15.8083 0 
128 1 0.417636 79.5 8.53919 15.7533 0 
226 1 0.418002 79.5 8.98488 15.9883 0 
91 1 0.375891 79.5 9.39383 15.7781 0 
96 1 0.375974 79.5 9.79964 15.5634 0 
20 1 0.418644 79.5 10.2006 15.8318 0 
239 1 0.376202 79.5 10.6284 15.6294 0 
149 1 0.420339 79.5 10.9998 15.8966 0 
131 1 0.37743 79.5 11.4515 15.7289 0 
295 1 0.376364 79.5 12.3012 15.8852 0 
6 1 0.41784 79.5 12.8013 15.746 0 
16 1 0.418857 79.5 13.3715 15.6345 0 
236 1 0.417091 79.5 14.3831 15.9087 0 
279 1 0.419009 79.5 5.00317 16.3128 0 
264 1 0.375728 79.5 5.89586 16.235 0 
100 1 0.41738 79.5 6.41328 16.3672 0 
85 1 0.378114 79.5 7.26561 16.1373 0 
52 1 0.417492 79.5 7.73388 16.2866 0 
273 1 0.375407 79.5 8.13026 16.0187 0 
36 1 0.41802 79.5 8.56138 16.2294 0 
144 1 0.417225 79.5 9.77431 16.036 0 
14 1 0.378044 79.5 9.37915 16.2544 0 
93 1 0.375858 79.5 10.1541 16.2949 0 
234 1 0.376567 79.5 10.5662 16.1016 0 
275 1 0.375236 79.5 10.9283 16.3452 0 
193 1 0.377638 79.5 11.3581 16.1906 0 
86 1 0.418347 79.5 11.8244 16.0154 0 
303 1 0.377701 79.5 12.1894 16.3378 0 
110 1 0.376982 79.5 12.6486 16.2194 0 
112 1 0.37724 79.5 13.1558 16.1054 0 
57 1 0.417312 79.5 13.7632 16.0472 0 
158 1 0.378408 79.5 14.8036 16.3748 0 
70 1 0.418537 79.5 5.50656 16.6027 0 
257 1 0.417584 79.5 6.05056 16.7509 0 
7 1 0.376836 79.5 6.55593 16.8635 0 
54 1 0.417762 79.5 6.9054 16.4904 0 
13 1 0.376492 79.5 7.36475 16.5993 0 
44 1 0.376441 79.5 7.80707 16.7337 0 
113 1 0.376209 79.5 8.17118 16.4781 0 
48 1 0.417895 79.5 8.57798 16.6976 0 
247 1 0.417974 79.5 8.98808 16.4533 0 
259 1 0.416952 79.5 9.74787 16.5066 0 
281 1 0.419313 79.5 9.37166 16.7451 0 
53 1 0.418687 79.5 10.1172 16.7503 0 
207 1 0.375123 79.5 10.5049 16.5363 0 
153 1 0.418903 79.5 10.8608 16.7745 0 
18 1 0.417229 79.5 11.2832 16.6511 0 
72 1 0.418442 79.5 11.7218 16.4724 0 
291 1 0.418671 79.5 12.0676 16.7848 0 
289 1 0.377045 79.5 12.5252 16.6696 0 
203 1 0.418748 79.5 12.9899 16.572 0 
98 1 0.376685 79.5 13.4781 16.4674 0 
105 1 0.378261 79.5 13.7888 16.8111 0 
256 1 0.417029 79.5 14.1586 16.4605 0 
66 1 0.417743 79.5 14.5502 16.8739 0 
90 1 0.418215 79.5 5.0668 16.9908 0 
265 1 0.4186 79.5 5.67607 17.1361 0 
254 1 0.418928 79.5 6.2289 17.237 0 
111 1 0.377387 79.5 7.00537 16.9622 0 
88 1 0.377633 79.5 6.70853 17.3263 0 
196 1 0.417674 79.5 7.45123 17.0444 0 
152 1 0.419353 79.5 7.88456 17.1744 0 
64 1 0.37804 79.5 8.21613 16.9266 0 
162 1 0.417925 79.5 8.54627 17.1901 0 
197 1 0.418138 79.5 8.96614 16.9033 0 
170 1 0.419066 79.5 8.97732 17.3199 0 
73 1 0.418056 79.5 9.7424 16.998 0 
67 1 0.375259 79.5 9.37223 17.2126 0 
134 1 0.377548 79.5 10.1194 17.2069 0 
214 1 0.375802 79.5 10.4609 16.9865 0 
269 1 0.377027 79.5 10.8013 17.1802 0 
237 1 0.377021 79.5 11.1941 17.1173 0 
10 1 0.377297 79.5 11.5346 17.3135 0 
278 1 0.377425 79.5 11.6233 16.9184 0 
23 1 0.377532 79.5 11.9508 17.2175 0 
2 1 0.418632 79.5 12.4053 17.1117 0 
35 1 0.375085 79.5 12.8584 17.0313 0 
126 1 0.377564 79.5 13.3096 16.9421 0 
43 1 0.416658 79.5 13.638 17.2952 0 
244 1 0.377185 79.5 14.1187 17.1492 0 
130 1 0.41741 79.5 15.0809 17.0989 0 
263 1 0.375892 79.5 4.755 17.4698 0 
4 1 0.418796 79.5 5.32897 17.5388 0 
183 1 0.418934 79.5 5.90678 17.6208 0 
136 1 0.377551 79.5 6.41309 17.6995 0 
232 1 0.41966 79.5 6.88665 17.7726 0 
25 1 0.418251 79.5 7.1748 17.4168 0 
124 1 0.377489 79.5 7.61793 17.5017 0 
224 1 0.417151 79.5 8.15304 17.5012 0 
168 1 0.377281 79.5 8.56474 17.6136 0 
177 1 0.417786 79.5 8.95647 17.7322 0 
99 1 0.418162 79.5 9.37227 17.67 0 
204 1 0.417908 79.5 9.73777 17.452 0 
39 1 0.417739 79.5 10.1318 17.6188 0 
299 1 0.376562 79.5 10.5 17.4318 0 
119 1 0.418318 79.5 10.9508 17.5476 0 
46 1 0.377328 79.5 11.3494 17.6476 0 
181 1 0.377496 79.5 11.804 17.6215 0 
242 1 0.419369 79.5 12.2511 17.5459 0 
240 1 0.417923 79.5 12.7181 17.4737 0 
167 1 0.376423 79.5 13.1682 17.3988 0 
297 1 0.418019 79.5 13.4892 17.7644 0 
115 1 0.377962 79.5 14.0004 17.6232 0 
182 1 0.376421 79.5 14.5208 17.4335 0 
286 1 0.417076 79.5 15.0122 17.7089 0 
179 1 0.419049 79.5 15.5853 17.5342 0 
84 1 0.417941 79.5 4.41252 17.9427 0 
298 1 0.374614 79.5 5.02891 17.9798 0 
157 1 0.417922 79.5 5.59575 18.0112 0 
243 1 0.376024 79.5 6.12871 18.0706 0 
1 1 0.416656 79.5 6.60754 18.1461 0 
219 1 0.416465 79.5 7.08145 18.2055 0 
175 1 0.375285 79.5 7.35698 17.8526 0 
294 1 0.420196 79.5 7.81102 17.8719 0 
210 1 0.417016 79.5 8.24612 17.9331 0 
97 1 0.377275 79.5 8.65252 18.0279 0 
222 1 0.376423 79.5 9.05043 18.1118 0 
143 1 0.378123 79.5 9.42637 18.0894 0 
125 1 0.417497 79.5 9.77981 17.9127 0 
202 1 0.416907 79.5 10.1792 18.0319 0 
106 1 0.418321 79.5 10.5485 17.8421 0 
40 1 0.417655 79.5 10.9458 17.965 0 
151 1 0.377236 79.5 11.3372 18.0247 0 
233 1 0.376541 79.5 11.713 17.9979 0 
65 1 0.375901 79.5 12.1167 17.9448 0 
208 1 0.376279 79.5 12.5557 17.8894 0 
31 1 0.376295 79.5 13.0061 17.8325 0 
274 1 0.37582 79.5 13.2283 18.2053 0 
185 1 0.37559 79.5 13.6522 18.1839 0 
191 1 0.419678 79.5 14.0829 18.0735 0 
241 1 0.375449 79.5 14.5324 17.9191 0 
173 1 0.377039 79.5 15.4299 18.1374 0 
120 1 0.378184 79.5 4.12364 18.5158 0 
258 1 0.419432 79.5 4.73206 18.4543 0 
212 1 0.41762 79.5 5.30598 18.4308 0 
260 1 0.417822 79.5 5.84868 18.4604 0 
217 1 0.420187 79.5 6.34646 18.5236 0 
117 1 0.376414 79.5 6.82589 18.5785 0 
186 1 0.417704 79.5 7.27719 18.6217 0 
189 1 0.374207 79.5 7.52816 18.2502 0 
188 1 0.417316 79.5 7.9464 18.2982 0 
75 1 0.376447 79.5 7.70603 18.661 0 
213 1 0.418946 79.5 8.37318 18.3547 0 
132 1 0.378247 79.5 8.78001 18.4121 0 
108 1 0.37715 79.5 9.17467 18.4625 0 
51 1 0.378133 79.5 9.55173 18.4454 0 
228 1 0.377094 79.5 9.91374 18.3524 0 
280 1 0.376116 79.5 10.3032 18.4012 0 
198 1 0.418579 79.5 10.6842 18.2978 0 
22 1 0.376996 79.5 11.1028 18.3497 0 
268 1 0.418081 79.5 11.5106 18.3918 0 
102 1 0.419434 79.5 11.9447 18.351 0 
164 1 0.419166 79.5 12.3748 18.2913 0 
80 1 0.376209 79.5 12.8074 18.2437 0 
255 1 0.419607 79.5 12.6114 18.6617 0 
272 1 0.378957 79.5 13.0497 18.6144 0 
79 1 0.376387 79.5 13.4848 18.594 0 
266 1 0.376034 79.5 13.9359 18.5482 0 
174 1 0.419338 79.5 14.4272 18.4392 0 
107 1 0.375813 79.5 14.9058 18.2797 0 
146 1 0.418691 79.5 15.855 18.5969 0 
169 1 0.378453 79.5 4.45376 18.9638 0 
135 1 0.377153 79.5 5.06401 18.8734 0 
199 1 0.417759 79.5 5.58041 18.8808 0 
200 1 0.417021 79.5 6.08584 18.9186 0 
42 1 0.418538 79.5 6.57886 18.9526 0 
245 1 0.376779 79.5 7.03323 18.9892 0 
63 1 0.377654 79.5 7.46569 19.021 0 
163 1 0.376966 79.5 7.87704 19.0442 0 
201 1 0.37868 79.5 8.11737 18.6977 0 
59 1 0.419658 79.5 8.28615 19.0792 0 
261 1 0.377169 79.5 8.53254 18.7379 0 
69 1 0.376926 79.5 8.93318 18.7701 0 
287 1 0.378509 79.5 9.72019 18.784 0 
140 1 0.378892 79.5 9.34421 18.7956 0 
262 1 0.418034 79.5 10.1097 18.7445 0 
178 1 0.415965 79.5 10.5324 18.7207 0 
92 1 0.417624 79.5 10.3416 19.09 0 
229 1 0.41843 79.5 10.9449 18.7104 0 
192 1 0.418338 79.5 10.7591 19.0832 0 
155 1 0.37768 79.5 11.338 18.7571 0 
283 1 0.377483 79.5 11.5414 19.1055 0 
230 1 0.376846 79.5 11.1546 19.107 0 
190 1 0.417687 79.5 11.753 18.745 0 
58 1 0.415805 79.5 11.9842 19.0914 0 
9 1 0.378113 79.5 12.1831 18.7073 0 
101 1 0.376457 79.5 12.4069 19.06 0 
29 1 0.417393 79.5 12.8529 19.0301 0 
24 1 0.416559 79.5 13.3035 19.0038 0 
17 1 0.37517 79.5 13.7582 18.9716 0 
282 1 0.416306 79.5 14.2381 18.9152 0 
30 1 0.376677 79.5 14.7357 18.8271 0 
160 1 0.418475 79.5 15.2482 18.6952 0 
71 1 0.377916 79.5 4.05408 19.3962 0 
33 1 0.378072 79.5 4.82636 19.2937 0 
252 1 0.378093 79.5 5.33801 19.3059 0 
122 1 0.41785 79.5 5.83303 19.329 0 
148 1 0.418606 79.5 6.32255 19.3536 0 
166 1 0.418977 79.5 6.79252 19.3791 0 
194 1 0.416887 79.5 7.23293 19.3959 0 
129 1 0.417621 79.5 7.67322 19.4139 0 
184 1 0.417741 79.5 8.09366 19.4526 0 
118 1 0.41851 79.5 8.70313 19.1137 0 
15 1 0.377305 79.5 8.50458 19.4609 0 
276 1 0.417911 79.5 9.11962 19.1208 0 
12 1 0.37772 79.5 8.91998 19.4648 0 
296 1 0.418792 79.5 9.31755 19.4847 0 
68 1 0.37735 79.5 9.52526 19.1266 0 
94 1 0.419162 79.5 9.72889 19.4636 0 
216 1 0.376432 79.5 9.92695 19.1148 0 
47 1 0.418289 79.5 10.143 19.4528 0 
121 1 0.418093 79.5 10.5591 19.4464 0 
89 1 0.376485 79.5 10.9609 19.4529 0 
284 1 0.376238 79.5 11.3419 19.4657 0 
209 1 0.419672 79.5 11.7521 19.4495 0 
41 1 0.375472 79.5 12.1993 19.4361 0 
127 1 0.417806 79.5 12.6372 19.4216 0 
221 1 0.419252 79.5 13.0899 19.4273 0 
165 1 0.417616 79.5 13.5542 19.4009 0 
45 1 0.41618 79.5 14.028 19.3668 0 
171 1 0.417726 79.5 14.5299 19.3215 0 
238 1 0.417818 79.5 15.0433 19.2384 0 
176 1 0.376448 79.5 15.5849 19.1439 0 
50 1 0.378881 79.5 4.51311 19.6937 0 
123 1 0.416947 79.5 5.06615 19.7321 0 
21 1 0.420824 79.5 5.58332 19.7491 0 
161 1 0.416955 79.5 6.08401 19.766 0 
301 1 0.41979 79.5 6.56756 19.7808 0 
32 1 0.375477 79.5 7.0204 19.7955 0 
218 1 0.418811 79.5 7.4582 19.7938 0 
38 1 0.377736 79.5 7.88943 19.8138 0 
87 1 0.377593 79.5 8.30207 19.8158 0 
145 1 0.419666 79.5 8.71334 19.8023 0 
27 1 0.375782 79.5 9.1202 19.8238 0 
8 1 0.378024 79.5 9.52782 19.8225 0 
253 1 0.415824 79.5 9.94026 19.8141 0 
133 1 0.418748 79.5 10.3563 19.8089 0 
293 1 0.417075 79.5 10.7721 19.8034 0 
285 1 0.37676 79.5 11.1674 19.8165 0 
11 1 0.377588 79.5 11.5554 19.816 0 
26 1 0.417817 79.5 11.982 19.7985 0 
49 1 0.419815 79.5 12.423 19.7954 0 
302 1 0.377055 79.5 12.8671 19.8101 0 
288 1 0.377512 79.5 13.3219 19.8027 0 
114 1 0.376368 79.5 13.7911 19.7872 0 
3 1 0.376593 79.5 14.2766 19.7654 0 
220 1 0.375738 79.5 14.783 19.7385 0 
83 1 0.419111 79.5 15.3297 19.6887 0 
267 1 0.418107 79.5 15.9347 19.5946 0 
