# LAMMPS data file for rigid bodies

303 atoms

1 atom types

0.0 	 20.0 	 xlo xhi 
0.0 	 20.0 	 ylo yhi 
-1.0 	 1.0 	 zlo zhi 

Atoms

156 1 0.41736 79.5 8.69041 13.6983 0 
141 1 0.417537 79.5 9.31836 13.753 0 
248 1 0.417624 79.5 10.0167 13.47 0 
142 1 0.376502 79.5 10.6707 13.5853 0 
159 1 0.418141 79.5 11.3054 13.6896 0 
271 1 0.419038 79.5 7.7895 14.1089 0 
172 1 0.377906 79.5 8.4011 14.197 0 
137 1 0.377547 79.5 9.82137 14.0021 0 
290 1 0.417552 79.5 10.353 14.0574 0 
138 1 0.417163 79.5 10.9127 14.1533 0 
5 1 0.417956 79.5 11.9539 13.8674 0 
116 1 0.418074 79.5 7.01981 14.486 0 
56 1 0.417661 79.5 8.09914 14.655 0 
154 1 0.377463 79.5 8.97641 14.2497 0 
235 1 0.417949 79.5 9.48508 14.3892 0 
206 1 0.377502 79.5 10.0118 14.5014 0 
215 1 0.417318 79.5 10.5374 14.5761 0 
246 1 0.419558 79.5 11.47 14.2872 0 
77 1 0.416408 79.5 12.0247 14.4576 0 
82 1 0.37548 79.5 12.5753 14.238 0 
139 1 0.377813 79.5 13.067 14.6511 0 
187 1 0.376835 79.5 6.74688 15.0125 0 
78 1 0.376793 79.5 7.55903 14.6677 0 
300 1 0.417817 79.5 8.67436 14.6839 0 
37 1 0.376521 79.5 9.19234 14.7953 0 
55 1 0.377258 79.5 9.68736 14.8806 0 
250 1 0.419005 79.5 10.2049 14.9716 0 
149 1 0.420339 79.5 10.7097 15.0916 0 
225 1 0.418808 79.5 11.0544 14.698 0 
109 1 0.416555 79.5 11.5541 14.8373 0 
28 1 0.376324 79.5 12.0368 14.975 0 
95 1 0.378511 79.5 12.521 14.8018 0 
19 1 0.377048 79.5 13.4408 15.0901 0 
292 1 0.419322 79.5 6.01925 15.3241 0 
76 1 0.376361 79.5 6.57403 15.5052 0 
34 1 0.376733 79.5 7.2945 15.1248 0 
249 1 0.37714 79.5 7.82031 15.1354 0 
227 1 0.419731 79.5 8.36285 15.1197 0 
231 1 0.418206 79.5 8.88816 15.1767 0 
91 1 0.375891 79.5 9.39128 15.2553 0 
74 1 0.418792 79.5 9.8765 15.3394 0 
96 1 0.375974 79.5 10.3587 15.4418 0 
270 1 0.377661 79.5 11.2036 15.2115 0 
104 1 0.417492 79.5 11.722 15.347 0 
195 1 0.376076 79.5 12.3562 15.3126 0 
277 1 0.378085 79.5 12.8696 15.2066 0 
236 1 0.417091 79.5 14.2973 15.4927 0 
279 1 0.419009 79.5 5.58758 15.9058 0 
180 1 0.4178 79.5 6.22395 15.9177 0 
211 1 0.376915 79.5 7.08036 15.5755 0 
103 1 0.376732 79.5 7.57654 15.5907 0 
113 1 0.376209 79.5 7.8675 15.9685 0 
150 1 0.42017 79.5 8.09435 15.5566 0 
44 1 0.376441 79.5 8.34543 15.9911 0 
128 1 0.417636 79.5 8.59922 15.5877 0 
259 1 0.416952 79.5 9.09984 15.6334 0 
226 1 0.418002 79.5 9.57642 15.7168 0 
234 1 0.376567 79.5 10.0412 15.7848 0 
14 1 0.378044 79.5 10.4984 15.8672 0 
144 1 0.417225 79.5 10.8379 15.5758 0 
86 1 0.418347 79.5 11.2977 15.6832 0 
81 1 0.377631 79.5 11.735 15.8079 0 
295 1 0.376364 79.5 12.1695 15.7295 0 
60 1 0.378985 79.5 12.6554 15.7005 0 
57 1 0.417312 79.5 13.1745 15.6363 0 
205 1 0.417837 79.5 13.7169 15.5835 0 
147 1 0.378206 79.5 5.94756 16.3593 0 
223 1 0.377582 79.5 6.49621 16.421 0 
251 1 0.418401 79.5 6.78204 16.0045 0 
36 1 0.41802 79.5 7.3101 16.0413 0 
85 1 0.378114 79.5 7.6565 16.3463 0 
273 1 0.375407 79.5 8.11838 16.3724 0 
247 1 0.417974 79.5 8.82596 16.0285 0 
196 1 0.417674 79.5 8.57948 16.4118 0 
48 1 0.417895 79.5 9.28999 16.0956 0 
93 1 0.375858 79.5 9.74129 16.1534 0 
53 1 0.418687 79.5 10.1741 16.2108 0 
275 1 0.375236 79.5 10.6099 16.2659 0 
20 1 0.418644 79.5 10.9975 16.0747 0 
239 1 0.376202 79.5 11.4615 16.1464 0 
193 1 0.377638 79.5 11.9768 16.1681 0 
131 1 0.37743 79.5 12.4325 16.1409 0 
6 1 0.41784 79.5 12.9282 16.1169 0 
98 1 0.376685 79.5 13.4417 16.1025 0 
16 1 0.418857 79.5 13.9929 16.0775 0 
256 1 0.417029 79.5 14.6066 16.0699 0 
61 1 0.416969 79.5 5.2169 16.4695 0 
264 1 0.375728 79.5 5.67754 16.7801 0 
100 1 0.41738 79.5 6.20591 16.822 0 
62 1 0.419478 79.5 7.00709 16.4812 0 
88 1 0.377633 79.5 6.71441 16.8869 0 
111 1 0.377387 79.5 7.41269 16.6946 0 
52 1 0.417492 79.5 7.8708 16.7598 0 
281 1 0.419313 79.5 8.32634 16.7985 0 
197 1 0.418138 79.5 8.78603 16.835 0 
67 1 0.375259 79.5 9.0389 16.4707 0 
73 1 0.418056 79.5 9.48935 16.5236 0 
134 1 0.377548 79.5 9.92333 16.5786 0 
207 1 0.375123 79.5 10.3593 16.615 0 
214 1 0.375802 79.5 10.8103 16.6047 0 
18 1 0.417229 79.5 11.228 16.5221 0 
72 1 0.418442 79.5 11.7182 16.5288 0 
303 1 0.377701 79.5 12.1996 16.5552 0 
110 1 0.376982 79.5 12.671 16.5431 0 
112 1 0.37724 79.5 13.1636 16.5405 0 
43 1 0.416658 79.5 13.689 16.5553 0 
203 1 0.418748 79.5 14.2543 16.575 0 
66 1 0.417743 79.5 14.8669 16.6352 0 
70 1 0.418537 79.5 4.77288 17.0048 0 
257 1 0.417584 79.5 5.33807 17.1741 0 
7 1 0.376836 79.5 5.90202 17.2383 0 
54 1 0.417762 79.5 6.40888 17.2869 0 
124 1 0.377489 79.5 7.15026 17.0247 0 
13 1 0.376492 79.5 7.60842 17.1162 0 
64 1 0.37804 79.5 8.06911 17.1715 0 
152 1 0.419353 79.5 8.52066 17.2157 0 
204 1 0.417908 79.5 9.23396 16.8948 0 
99 1 0.418162 79.5 8.96732 17.2559 0 
202 1 0.416907 79.5 9.67869 16.9527 0 
177 1 0.417786 79.5 9.42595 17.3159 0 
39 1 0.417739 79.5 10.1195 16.9749 0 
119 1 0.418318 79.5 10.5882 16.9759 0 
299 1 0.376562 79.5 11.042 16.9482 0 
46 1 0.377328 79.5 10.832 17.3157 0 
153 1 0.418903 79.5 11.4919 16.919 0 
242 1 0.419369 79.5 11.2782 17.3089 0 
278 1 0.377425 79.5 11.9534 16.9268 0 
269 1 0.377027 79.5 11.7305 17.3049 0 
289 1 0.377045 79.5 12.4248 16.9287 0 
2 1 0.418632 79.5 12.1808 17.3116 0 
291 1 0.418671 79.5 12.6467 17.3296 0 
35 1 0.375085 79.5 12.8994 16.9379 0 
167 1 0.376423 79.5 13.3779 16.9517 0 
126 1 0.377564 79.5 13.9197 17.0099 0 
105 1 0.378261 79.5 14.4324 17.0727 0 
244 1 0.377185 79.5 14.9997 17.1877 0 
90 1 0.418215 79.5 4.38408 17.6512 0 
254 1 0.418928 79.5 4.98749 17.62 0 
136 1 0.377551 79.5 5.61483 17.6309 0 
25 1 0.418251 79.5 6.13022 17.6956 0 
219 1 0.416465 79.5 6.62584 17.7761 0 
162 1 0.417925 79.5 6.87662 17.3836 0 
170 1 0.419066 79.5 7.33569 17.4711 0 
294 1 0.420196 79.5 7.80391 17.5227 0 
224 1 0.417151 79.5 8.25619 17.5803 0 
168 1 0.377281 79.5 8.67612 17.625 0 
210 1 0.417016 79.5 9.0899 17.6609 0 
143 1 0.378123 79.5 9.48297 17.7161 0 
125 1 0.417497 79.5 9.88338 17.3633 0 
222 1 0.376423 79.5 9.85486 17.7601 0 
40 1 0.417655 79.5 10.3497 17.3416 0 
198 1 0.418579 79.5 10.6341 17.6736 0 
228 1 0.377094 79.5 10.2282 17.7255 0 
233 1 0.376541 79.5 11.0674 17.6651 0 
65 1 0.375901 79.5 11.5164 17.661 0 
10 1 0.377297 79.5 11.958 17.681 0 
23 1 0.377532 79.5 12.3923 17.7193 0 
240 1 0.417923 79.5 12.8439 17.7505 0 
237 1 0.377021 79.5 13.1114 17.3489 0 
115 1 0.377962 79.5 13.2967 17.7651 0 
297 1 0.418019 79.5 13.5941 17.3673 0 
158 1 0.378408 79.5 14.1152 17.4908 0 
182 1 0.376421 79.5 14.6216 17.5402 0 
179 1 0.419049 79.5 15.47 17.5156 0 
265 1 0.4186 79.5 4.68976 18.1844 0 
183 1 0.418934 79.5 5.32844 18.0388 0 
1 1 0.416656 79.5 5.85314 18.1018 0 
232 1 0.41966 79.5 6.36048 18.1623 0 
175 1 0.375285 79.5 7.08384 17.8456 0 
243 1 0.376024 79.5 6.84129 18.2117 0 
157 1 0.417922 79.5 7.54275 17.8951 0 
217 1 0.420187 79.5 8.00176 17.945 0 
117 1 0.376414 79.5 8.42834 17.986 0 
213 1 0.418946 79.5 8.84174 18.0211 0 
132 1 0.378247 79.5 9.2504 18.0604 0 
108 1 0.37715 79.5 9.63575 18.0927 0 
51 1 0.378133 79.5 10.0391 18.1008 0 
151 1 0.377236 79.5 10.4332 18.06 0 
106 1 0.418321 79.5 10.8543 18.0293 0 
268 1 0.418081 79.5 11.2917 18.0156 0 
164 1 0.419166 79.5 11.7359 18.0305 0 
181 1 0.377496 79.5 12.1793 18.0753 0 
272 1 0.378957 79.5 12.5986 18.1278 0 
185 1 0.37559 79.5 13.0339 18.1613 0 
208 1 0.376279 79.5 13.7633 17.7916 0 
274 1 0.37582 79.5 13.479 18.1666 0 
241 1 0.375449 79.5 13.9494 18.1725 0 
130 1 0.41741 79.5 14.3739 17.9681 0 
286 1 0.417076 79.5 15.0056 17.9 0 
173 1 0.377039 79.5 15.7015 18.0868 0 
258 1 0.419432 79.5 4.24051 18.6386 0 
263 1 0.375892 79.5 5.13456 18.4794 0 
298 1 0.374614 79.5 5.62528 18.5202 0 
260 1 0.417822 79.5 6.1008 18.5633 0 
4 1 0.418796 79.5 6.59667 18.5943 0 
42 1 0.418538 79.5 7.05677 18.6443 0 
200 1 0.417021 79.5 7.29213 18.2623 0 
186 1 0.417704 79.5 7.75919 18.3108 0 
189 1 0.374207 79.5 8.19683 18.3373 0 
201 1 0.37868 79.5 8.61005 18.3635 0 
97 1 0.377275 79.5 9.02648 18.4 0 
261 1 0.377169 79.5 9.41866 18.4243 0 
287 1 0.378509 79.5 9.81647 18.4301 0 
280 1 0.376116 79.5 10.2337 18.4236 0 
262 1 0.418034 79.5 10.642 18.3996 0 
178 1 0.415965 79.5 11.0692 18.3925 0 
102 1 0.419434 79.5 11.4955 18.4006 0 
190 1 0.417687 79.5 11.9379 18.4174 0 
80 1 0.376209 79.5 12.3853 18.4848 0 
31 1 0.376295 79.5 12.8015 18.5334 0 
29 1 0.417393 79.5 13.2494 18.5665 0 
24 1 0.416559 79.5 13.7233 18.569 0 
79 1 0.376387 79.5 14.2373 18.5098 0 
191 1 0.419678 79.5 14.7166 18.3768 0 
107 1 0.375813 79.5 15.2666 18.3972 0 
120 1 0.378184 79.5 4.79956 18.821 0 
148 1 0.418606 79.5 5.36163 18.9255 0 
135 1 0.377153 79.5 5.86188 18.9696 0 
199 1 0.417759 79.5 6.34899 18.9868 0 
245 1 0.376779 79.5 6.8309 19.0164 0 
188 1 0.417316 79.5 7.51535 18.6744 0 
163 1 0.376966 79.5 7.28334 19.0391 0 
75 1 0.376447 79.5 7.96274 18.6937 0 
184 1 0.417741 79.5 7.73555 19.0582 0 
118 1 0.41851 79.5 8.38243 18.7163 0 
218 1 0.418811 79.5 8.17595 19.0832 0 
59 1 0.419658 79.5 8.80144 18.7391 0 
15 1 0.377305 79.5 8.58647 19.1071 0 
140 1 0.378892 79.5 9.21413 18.7624 0 
68 1 0.37735 79.5 9.60148 18.7624 0 
69 1 0.376926 79.5 9.3967 19.1101 0 
92 1 0.417624 79.5 10.0272 18.7651 0 
121 1 0.418093 79.5 9.79452 19.1075 0 
276 1 0.417911 79.5 10.4448 18.7675 0 
192 1 0.418338 79.5 10.8598 18.7637 0 
22 1 0.376996 79.5 11.2577 18.7539 0 
58 1 0.415805 79.5 11.4256 19.1108 0 
155 1 0.37768 79.5 11.6723 18.7644 0 
229 1 0.41843 79.5 12.1161 18.7976 0 
9 1 0.378113 79.5 12.5991 18.8989 0 
255 1 0.419607 79.5 13.0267 18.9623 0 
17 1 0.37517 79.5 13.4992 18.9694 0 
174 1 0.419338 79.5 14.009 18.9402 0 
30 1 0.376677 79.5 14.514 18.8854 0 
176 1 0.376448 79.5 15.0085 18.8202 0 
160 1 0.418475 79.5 15.7519 18.7632 0 
169 1 0.378453 79.5 4.48747 19.2208 0 
212 1 0.41762 79.5 5.04697 19.3157 0 
33 1 0.378072 79.5 5.59769 19.3552 0 
252 1 0.378093 79.5 6.09506 19.3725 0 
166 1 0.418977 79.5 6.58492 19.389 0 
122 1 0.41785 79.5 7.05936 19.4095 0 
129 1 0.417621 79.5 7.50568 19.4277 0 
194 1 0.416887 79.5 7.96706 19.4479 0 
87 1 0.377593 79.5 8.38885 19.4638 0 
27 1 0.375782 79.5 8.78173 19.4607 0 
94 1 0.419162 79.5 8.9942 19.1112 0 
12 1 0.37772 79.5 9.18679 19.4584 0 
296 1 0.418792 79.5 9.58067 19.4647 0 
47 1 0.418289 79.5 10.0043 19.4626 0 
293 1 0.417075 79.5 10.2367 19.125 0 
284 1 0.376238 79.5 10.4261 19.4733 0 
216 1 0.376432 79.5 10.6333 19.1296 0 
283 1 0.377483 79.5 10.8023 19.4761 0 
230 1 0.376846 79.5 11.017 19.1257 0 
209 1 0.419672 79.5 11.2013 19.4765 0 
302 1 0.377055 79.5 11.8412 19.1124 0 
41 1 0.375472 79.5 11.6104 19.4601 0 
49 1 0.419815 79.5 12.0428 19.455 0 
101 1 0.376457 79.5 12.3073 19.1447 0 
288 1 0.377512 79.5 12.4735 19.4827 0 
266 1 0.376034 79.5 12.8337 19.3485 0 
221 1 0.419252 79.5 13.2852 19.3649 0 
127 1 0.417806 79.5 13.7711 19.355 0 
282 1 0.416306 79.5 14.2922 19.3337 0 
267 1 0.418107 79.5 14.8202 19.2954 0 
146 1 0.418691 79.5 15.3749 19.2072 0 
84 1 0.417941 79.5 4.11995 19.622 0 
71 1 0.377916 79.5 4.74891 19.7194 0 
50 1 0.378881 79.5 5.3162 19.7465 0 
123 1 0.416947 79.5 5.83344 19.7627 0 
21 1 0.420824 79.5 6.33539 19.7783 0 
301 1 0.41979 79.5 6.82927 19.7913 0 
63 1 0.377654 79.5 7.29108 19.8091 0 
161 1 0.416955 79.5 7.73853 19.7982 0 
32 1 0.375477 79.5 8.18091 19.8156 0 
38 1 0.377736 79.5 8.58455 19.8157 0 
145 1 0.419666 79.5 8.9921 19.8026 0 
8 1 0.378024 79.5 9.39561 19.8182 0 
253 1 0.415824 79.5 9.79676 19.8155 0 
133 1 0.418748 79.5 10.2213 19.8113 0 
285 1 0.37676 79.5 10.617 19.8191 0 
89 1 0.376485 79.5 10.9966 19.82 0 
11 1 0.377588 79.5 11.3999 19.8197 0 
26 1 0.417817 79.5 11.8099 19.8021 0 
114 1 0.376368 79.5 12.2392 19.8169 0 
3 1 0.376593 79.5 12.6662 19.8134 0 
165 1 0.417616 79.5 13.0807 19.7718 0 
45 1 0.41618 79.5 13.5493 19.7751 0 
171 1 0.417726 79.5 14.0465 19.7607 0 
83 1 0.419111 79.5 14.5774 19.7462 0 
220 1 0.375738 79.5 15.1318 19.7135 0 
238 1 0.417818 79.5 15.7594 19.6227 0 
