# LAMMPS data file for rigid bodies

303 atoms

1 atom types

0.0 	 20.0 	 xlo xhi 
0.0 	 20.0 	 ylo yhi 
-1.0 	 1.0 	 zlo zhi 

Atoms

141 1 0.417537 79.5 8.79342 13.7328 0 
248 1 0.417624 79.5 9.38542 13.4812 0 
142 1 0.376502 79.5 10.3953 13.595 0 
5 1 0.417956 79.5 11.3964 13.775 0 
116 1 0.418074 79.5 8.20205 13.985 0 
154 1 0.377463 79.5 9.31096 14.0965 0 
290 1 0.417552 79.5 9.84275 13.8562 0 
138 1 0.417163 79.5 10.2839 14.2006 0 
159 1 0.418141 79.5 10.8287 13.9835 0 
139 1 0.377813 79.5 12.3254 14.1508 0 
187 1 0.376835 79.5 7.70076 14.3513 0 
271 1 0.419038 79.5 8.26698 14.5727 0 
156 1 0.41736 79.5 8.78216 14.3177 0 
137 1 0.377547 79.5 9.26265 14.6104 0 
206 1 0.377502 79.5 9.75448 14.4175 0 
246 1 0.419558 79.5 10.6986 14.5594 0 
28 1 0.376324 79.5 11.2062 14.3974 0 
82 1 0.37548 79.5 11.7376 14.2471 0 
195 1 0.376076 79.5 12.0875 14.6638 0 
277 1 0.378085 79.5 12.6813 14.6457 0 
95 1 0.378511 79.5 13.2292 14.6395 0 
292 1 0.419322 79.5 6.15603 15.0533 0 
34 1 0.376733 79.5 6.73547 14.6762 0 
211 1 0.376915 79.5 7.28287 14.7389 0 
78 1 0.376793 79.5 7.81317 14.9059 0 
300 1 0.417817 79.5 8.30629 15.1095 0 
172 1 0.377906 79.5 8.77398 14.8395 0 
227 1 0.419731 79.5 9.23006 15.1034 0 
235 1 0.417949 79.5 9.70499 14.9307 0 
215 1 0.417318 79.5 10.1873 14.7367 0 
225 1 0.418808 79.5 10.578 15.0865 0 
77 1 0.416408 79.5 11.0692 14.9424 0 
104 1 0.417492 79.5 11.5652 14.7856 0 
60 1 0.378985 79.5 12.3965 15.0671 0 
236 1 0.417091 79.5 13.7657 15.0137 0 
251 1 0.418401 79.5 6.72767 15.2581 0 
76 1 0.376361 79.5 7.38712 15.2443 0 
56 1 0.417661 79.5 7.86925 15.4308 0 
231 1 0.418206 79.5 8.77058 15.3383 0 
37 1 0.376521 79.5 9.66301 15.4195 0 
55 1 0.377258 79.5 10.1123 15.2386 0 
270 1 0.377661 79.5 10.9535 15.4353 0 
131 1 0.37743 79.5 11.4192 15.3073 0 
109 1 0.416555 79.5 11.9013 15.1874 0 
57 1 0.417312 79.5 12.747 15.412 0 
19 1 0.377048 79.5 13.2044 15.1997 0 
16 1 0.418857 79.5 14.2097 15.51 0 
61 1 0.416969 79.5 5.5401 15.5722 0 
279 1 0.419009 79.5 6.16138 15.66 0 
62 1 0.419478 79.5 6.65016 15.8893 0 
249 1 0.37714 79.5 7.08419 15.6203 0 
103 1 0.376732 79.5 7.52522 15.7885 0 
91 1 0.375891 79.5 7.95343 15.9539 0 
150 1 0.42017 79.5 8.33138 15.6333 0 
226 1 0.418002 79.5 8.7787 15.8266 0 
74 1 0.418792 79.5 9.22519 15.5901 0 
275 1 0.375236 79.5 9.63116 15.8849 0 
250 1 0.419005 79.5 10.0582 15.7006 0 
96 1 0.375974 79.5 10.5083 15.5597 0 
239 1 0.376202 79.5 10.8742 15.8906 0 
86 1 0.418347 79.5 11.3182 15.7761 0 
81 1 0.377631 79.5 11.7816 15.669 0 
295 1 0.376364 79.5 12.2513 15.5595 0 
110 1 0.376982 79.5 12.6035 15.9045 0 
98 1 0.376685 79.5 13.1048 15.7738 0 
205 1 0.417837 79.5 13.6138 15.6129 0 
70 1 0.418537 79.5 5.2818 16.422 0 
264 1 0.375728 79.5 5.75781 16.1031 0 
180 1 0.4178 79.5 6.26281 16.2674 0 
147 1 0.378206 79.5 6.74339 16.4318 0 
36 1 0.41802 79.5 7.12841 16.1202 0 
85 1 0.378114 79.5 7.58406 16.2674 0 
113 1 0.376209 79.5 8.36732 16.1218 0 
273 1 0.375407 79.5 8.00479 16.4206 0 
247 1 0.417974 79.5 8.78099 16.2935 0 
128 1 0.417636 79.5 9.21024 16.0561 0 
14 1 0.378044 79.5 9.59495 16.3312 0 
93 1 0.375858 79.5 10.005 16.152 0 
144 1 0.417225 79.5 10.4403 16.0147 0 
149 1 0.420339 79.5 10.8125 16.3458 0 
193 1 0.377638 79.5 11.2327 16.2331 0 
303 1 0.377701 79.5 11.6687 16.1156 0 
289 1 0.377045 79.5 12.1298 16.009 0 
237 1 0.377021 79.5 12.4771 16.3529 0 
203 1 0.418748 79.5 12.9641 16.258 0 
6 1 0.41784 79.5 13.4778 16.1576 0 
105 1 0.378261 79.5 14.0012 16.0691 0 
256 1 0.417029 79.5 14.6187 16.0116 0 
257 1 0.417584 79.5 4.87824 16.8831 0 
100 1 0.41738 79.5 5.85515 16.6462 0 
223 1 0.377582 79.5 6.37164 16.7835 0 
13 1 0.376492 79.5 7.21292 16.597 0 
52 1 0.417492 79.5 7.65344 16.7371 0 
44 1 0.376441 79.5 8.39853 16.5807 0 
48 1 0.417895 79.5 8.79035 16.7506 0 
259 1 0.416952 79.5 9.19508 16.5074 0 
281 1 0.419313 79.5 9.54426 16.8093 0 
73 1 0.418056 79.5 9.95294 16.583 0 
53 1 0.418687 79.5 10.3805 16.4697 0 
207 1 0.375123 79.5 10.7183 16.7883 0 
234 1 0.376567 79.5 11.1234 16.6879 0 
20 1 0.418644 79.5 11.5451 16.5675 0 
72 1 0.418442 79.5 12.0044 16.452 0 
2 1 0.418632 79.5 12.3349 16.7947 0 
278 1 0.377425 79.5 12.8127 16.7078 0 
35 1 0.375085 79.5 13.3016 16.6417 0 
126 1 0.377564 79.5 13.7969 16.5738 0 
112 1 0.37724 79.5 14.327 16.5044 0 
66 1 0.417743 79.5 15.0286 16.5374 0 
7 1 0.376836 79.5 5.47764 17.0162 0 
88 1 0.377633 79.5 6.019 17.1404 0 
136 1 0.377551 79.5 6.49997 17.2561 0 
54 1 0.417762 79.5 6.85162 16.9066 0 
111 1 0.377387 79.5 7.32397 17.0585 0 
124 1 0.377489 79.5 7.75819 17.2021 0 
196 1 0.417674 79.5 8.08415 16.9026 0 
197 1 0.418138 79.5 8.49497 17.0735 0 
143 1 0.378123 79.5 8.89343 17.2265 0 
168 1 0.377281 79.5 9.15686 16.9367 0 
125 1 0.417497 79.5 9.36747 17.2782 0 
204 1 0.417908 79.5 9.90977 17.0131 0 
198 1 0.418579 79.5 10.2081 17.3319 0 
134 1 0.377548 79.5 10.3155 16.8983 0 
40 1 0.417655 79.5 10.6189 17.2105 0 
67 1 0.375259 79.5 11.0277 17.1064 0 
214 1 0.375802 79.5 11.4337 17.0106 0 
18 1 0.417229 79.5 11.8653 16.9123 0 
153 1 0.418903 79.5 12.1813 17.2469 0 
291 1 0.418671 79.5 12.6518 17.1432 0 
23 1 0.377532 79.5 13.1295 17.0652 0 
167 1 0.376423 79.5 13.6205 17.0357 0 
43 1 0.416658 79.5 14.1183 16.9981 0 
244 1 0.377185 79.5 14.6422 16.9436 0 
158 1 0.378408 79.5 15.0991 17.2371 0 
90 1 0.418215 79.5 4.46704 17.4225 0 
254 1 0.418928 79.5 5.10304 17.4369 0 
219 1 0.416465 79.5 5.66094 17.5184 0 
1 1 0.416656 79.5 6.16063 17.6237 0 
232 1 0.41966 79.5 6.64051 17.7243 0 
25 1 0.418251 79.5 6.97797 17.3698 0 
175 1 0.375285 79.5 7.43213 17.4935 0 
162 1 0.417925 79.5 7.87799 17.6304 0 
64 1 0.37804 79.5 8.1887 17.3722 0 
170 1 0.419066 79.5 8.579 17.5373 0 
99 1 0.418162 79.5 9.01636 17.6131 0 
132 1 0.378247 79.5 9.40619 17.697 0 
202 1 0.416907 79.5 9.76601 17.403 0 
280 1 0.376116 79.5 10.1372 17.7262 0 
51 1 0.378133 79.5 10.5191 17.6421 0 
106 1 0.418321 79.5 10.9089 17.5409 0 
39 1 0.417739 79.5 11.3259 17.4359 0 
299 1 0.376562 79.5 11.7348 17.345 0 
233 1 0.376541 79.5 11.5906 17.7776 0 
10 1 0.377297 79.5 12.0116 17.6525 0 
269 1 0.377027 79.5 12.4813 17.5707 0 
240 1 0.417923 79.5 12.9494 17.4998 0 
115 1 0.377962 79.5 13.4222 17.4365 0 
297 1 0.418019 79.5 13.98 17.4902 0 
182 1 0.376421 79.5 14.4875 17.4269 0 
130 1 0.41741 79.5 14.8929 17.7722 0 
179 1 0.419049 79.5 15.5309 17.6854 0 
265 1 0.4186 79.5 4.77854 17.9309 0 
183 1 0.418934 79.5 5.35229 17.9452 0 
243 1 0.376024 79.5 5.86808 18.0199 0 
157 1 0.417922 79.5 6.35225 18.1033 0 
117 1 0.376414 79.5 6.82023 18.1902 0 
294 1 0.420196 79.5 7.09712 17.8281 0 
152 1 0.419353 79.5 7.53659 17.9295 0 
222 1 0.376423 79.5 7.95073 18.0404 0 
224 1 0.417151 79.5 8.31636 17.8868 0 
177 1 0.417786 79.5 8.74387 17.9653 0 
213 1 0.418946 79.5 9.16063 18.0363 0 
140 1 0.378892 79.5 9.5593 18.1099 0 
228 1 0.377094 79.5 9.76864 17.7971 0 
287 1 0.378509 79.5 9.97938 18.1085 0 
102 1 0.419434 79.5 10.3951 18.044 0 
151 1 0.377236 79.5 10.7857 17.9707 0 
119 1 0.418318 79.5 11.1838 17.8747 0 
46 1 0.377328 79.5 11.4139 18.2041 0 
65 1 0.375901 79.5 11.8737 18.0457 0 
242 1 0.419369 79.5 12.3105 17.9648 0 
80 1 0.376209 79.5 12.7651 17.912 0 
31 1 0.376295 79.5 13.2127 17.8649 0 
185 1 0.37559 79.5 13.6582 17.8092 0 
79 1 0.376387 79.5 13.5 18.2195 0 
241 1 0.375449 79.5 13.9601 18.1288 0 
208 1 0.376279 79.5 14.3535 17.9071 0 
173 1 0.377039 79.5 15.2602 18.199 0 
263 1 0.375892 79.5 4.39075 18.3357 0 
298 1 0.374614 79.5 5.06488 18.3883 0 
4 1 0.418796 79.5 5.57653 18.4274 0 
200 1 0.417021 79.5 6.07242 18.4928 0 
217 1 0.420187 79.5 6.56422 18.5558 0 
189 1 0.374207 79.5 7.01559 18.6361 0 
210 1 0.417016 79.5 7.25744 18.2818 0 
201 1 0.37868 79.5 7.70295 18.3521 0 
75 1 0.376447 79.5 8.13289 18.3779 0 
188 1 0.417316 79.5 8.52693 18.3308 0 
261 1 0.377169 79.5 8.93264 18.38 0 
69 1 0.376926 79.5 9.33882 18.4149 0 
68 1 0.37735 79.5 9.77348 18.4313 0 
262 1 0.418034 79.5 10.2186 18.423 0 
22 1 0.376996 79.5 10.6247 18.3877 0 
190 1 0.417687 79.5 11.0178 18.3093 0 
229 1 0.41843 79.5 11.2644 18.6523 0 
268 1 0.418081 79.5 11.7433 18.4215 0 
181 1 0.377496 79.5 12.1711 18.3672 0 
164 1 0.419166 79.5 12.6025 18.3186 0 
272 1 0.378957 79.5 13.0497 18.2655 0 
24 1 0.416559 79.5 13.3449 18.6322 0 
274 1 0.37582 79.5 13.8029 18.5715 0 
107 1 0.375813 79.5 14.2587 18.4762 0 
286 1 0.417076 79.5 14.7152 18.3009 0 
146 1 0.418691 79.5 15.7244 18.5657 0 
84 1 0.417941 79.5 4.09204 18.8884 0 
212 1 0.41762 79.5 4.74584 18.7874 0 
120 1 0.378184 79.5 5.30157 18.8515 0 
258 1 0.419432 79.5 5.79438 18.9042 0 
260 1 0.417822 79.5 6.28995 18.9437 0 
186 1 0.417704 79.5 6.76595 18.9969 0 
42 1 0.418538 79.5 7.46808 18.6934 0 
199 1 0.417759 79.5 7.2307 19.0497 0 
163 1 0.376966 79.5 7.90791 18.7182 0 
245 1 0.376779 79.5 7.68104 19.0749 0 
108 1 0.37715 79.5 8.33467 18.7229 0 
129 1 0.417621 79.5 8.11036 19.0794 0 
97 1 0.377275 79.5 8.72525 18.7315 0 
184 1 0.417741 79.5 8.52692 19.1017 0 
59 1 0.419658 79.5 9.12567 18.7505 0 
94 1 0.419162 79.5 9.54407 18.7556 0 
296 1 0.418792 79.5 9.75723 19.1109 0 
92 1 0.417624 79.5 9.98693 18.7661 0 
192 1 0.418338 79.5 10.4411 18.7725 0 
58 1 0.415805 79.5 10.8547 18.7299 0 
230 1 0.376846 79.5 10.9795 19.1035 0 
178 1 0.415965 79.5 11.3731 19.0976 0 
9 1 0.378113 79.5 11.632 18.8009 0 
255 1 0.419607 79.5 12.0311 18.759 0 
101 1 0.376457 79.5 12.4455 18.7235 0 
17 1 0.37517 79.5 12.6849 19.0694 0 
29 1 0.417393 79.5 12.881 18.6795 0 
221 1 0.419252 79.5 13.1523 19.0457 0 
266 1 0.376034 79.5 13.6295 18.9975 0 
176 1 0.376448 79.5 14.0854 18.9343 0 
30 1 0.376677 79.5 14.5698 18.8386 0 
191 1 0.419678 79.5 15.0894 18.7172 0 
71 1 0.377916 79.5 4.52281 19.268 0 
123 1 0.416947 79.5 5.0523 19.279 0 
135 1 0.377153 79.5 5.55018 19.3197 0 
148 1 0.418606 79.5 6.03884 19.3511 0 
166 1 0.418977 79.5 6.51465 19.3857 0 
122 1 0.41785 79.5 6.99229 19.4137 0 
63 1 0.377654 79.5 7.46244 19.424 0 
218 1 0.418811 79.5 7.91038 19.4463 0 
15 1 0.377305 79.5 8.33328 19.4687 0 
87 1 0.377593 79.5 8.7341 19.4693 0 
118 1 0.41851 79.5 8.94235 19.1236 0 
27 1 0.375782 79.5 9.14995 19.4611 0 
12 1 0.37772 79.5 9.34895 19.1134 0 
293 1 0.417075 79.5 9.54303 19.4664 0 
121 1 0.418093 79.5 9.97471 19.4596 0 
276 1 0.417911 79.5 10.2066 19.1177 0 
216 1 0.376432 79.5 10.3922 19.4685 0 
283 1 0.377483 79.5 10.6042 19.1324 0 
284 1 0.376238 79.5 10.7903 19.4589 0 
209 1 0.419672 79.5 11.1867 19.47 0 
155 1 0.37768 79.5 11.8064 19.1432 0 
41 1 0.375472 79.5 11.5931 19.4718 0 
127 1 0.417806 79.5 12.2432 19.1199 0 
302 1 0.377055 79.5 12.0098 19.4734 0 
165 1 0.417616 79.5 12.4884 19.4581 0 
282 1 0.416306 79.5 12.9344 19.4326 0 
45 1 0.41618 79.5 13.4317 19.4075 0 
288 1 0.377512 79.5 13.8951 19.3744 0 
238 1 0.417818 79.5 14.3781 19.3152 0 
174 1 0.419338 79.5 14.906 19.2395 0 
160 1 0.418475 79.5 15.4827 19.1331 0 
169 1 0.378453 79.5 4.16415 19.6489 0 
50 1 0.378881 79.5 4.78032 19.7232 0 
33 1 0.378072 79.5 5.29837 19.7385 0 
21 1 0.420824 79.5 5.79325 19.7587 0 
252 1 0.378093 79.5 6.28019 19.7812 0 
161 1 0.416955 79.5 6.75083 19.7922 0 
301 1 0.41979 79.5 7.23172 19.7923 0 
194 1 0.416887 79.5 7.68551 19.7977 0 
32 1 0.375477 79.5 8.12942 19.8159 0 
38 1 0.377736 79.5 8.53821 19.8163 0 
145 1 0.419666 79.5 8.9528 19.8029 0 
8 1 0.378024 79.5 9.3595 19.8187 0 
253 1 0.415824 79.5 9.76448 19.8132 0 
47 1 0.418289 79.5 10.1866 19.8104 0 
133 1 0.418748 79.5 10.6012 19.805 0 
285 1 0.37676 79.5 10.9971 19.8193 0 
89 1 0.376485 79.5 11.3952 19.8184 0 
11 1 0.377588 79.5 11.7998 19.8158 0 
26 1 0.417817 79.5 12.2432 19.7993 0 
220 1 0.375738 79.5 12.7105 19.8145 0 
49 1 0.419815 79.5 13.1865 19.7924 0 
114 1 0.376368 79.5 13.6728 19.7876 0 
3 1 0.376593 79.5 14.145 19.7621 0 
171 1 0.417726 79.5 14.6639 19.7306 0 
83 1 0.419111 79.5 15.2245 19.6824 0 
267 1 0.418107 79.5 15.8337 19.6035 0 
