# LAMMPS data file for rigid bodies

303 atoms

1 atom types

0.0 	 20.0 	 xlo xhi 
0.0 	 20.0 	 ylo yhi 
-1.0 	 1.0 	 zlo zhi 

Atoms

248 1 0.417624 79.5 9.51024 13.5509 0 
159 1 0.418141 79.5 10.5001 13.4061 0 
82 1 0.37548 79.5 11.1958 13.639 0 
116 1 0.418074 79.5 7.59352 14.0925 0 
141 1 0.417537 79.5 8.42393 13.8265 0 
154 1 0.377463 79.5 9.09388 13.9505 0 
290 1 0.417552 79.5 9.63326 14.1894 0 
142 1 0.376502 79.5 10.0578 13.8112 0 
138 1 0.417163 79.5 10.7049 13.9677 0 
77 1 0.416408 79.5 11.2807 14.2157 0 
5 1 0.417956 79.5 11.8068 13.9066 0 
211 1 0.376915 79.5 7.04607 14.4711 0 
156 1 0.41736 79.5 8.10491 14.3856 0 
137 1 0.377547 79.5 8.71657 14.3182 0 
235 1 0.417949 79.5 9.19994 14.5292 0 
206 1 0.377502 79.5 9.88339 14.6492 0 
215 1 0.417318 79.5 10.2625 14.3114 0 
225 1 0.418808 79.5 10.7986 14.5133 0 
28 1 0.376324 79.5 11.7877 14.51 0 
195 1 0.376076 79.5 12.2958 14.2738 0 
95 1 0.378511 79.5 12.7139 14.6407 0 
139 1 0.377813 79.5 13.1583 14.3219 0 
34 1 0.376733 79.5 6.55633 14.8293 0 
187 1 0.376835 79.5 7.06177 15.0546 0 
78 1 0.376793 79.5 7.54857 14.7068 0 
271 1 0.419038 79.5 8.00195 14.9676 0 
231 1 0.418206 79.5 8.50539 14.769 0 
172 1 0.377906 79.5 8.94172 14.9874 0 
227 1 0.419731 79.5 9.50499 14.9413 0 
250 1 0.419005 79.5 10.3718 14.842 0 
109 1 0.416555 79.5 10.8533 15.0361 0 
246 1 0.419558 79.5 11.303 14.7646 0 
104 1 0.417492 79.5 11.7674 15.0412 0 
60 1 0.378985 79.5 12.2403 14.8595 0 
16 1 0.418857 79.5 13.2881 14.927 0 
292 1 0.419322 79.5 6.04516 15.1694 0 
76 1 0.376361 79.5 6.59515 15.4083 0 
300 1 0.417817 79.5 7.5395 15.2664 0 
249 1 0.37714 79.5 7.98937 15.4929 0 
103 1 0.376732 79.5 8.42991 15.2536 0 
150 1 0.42017 79.5 8.83807 15.4987 0 
37 1 0.376521 79.5 9.26284 15.3227 0 
55 1 0.377258 79.5 9.653 15.5224 0 
74 1 0.418792 79.5 9.97154 15.1621 0 
96 1 0.375974 79.5 10.4447 15.3373 0 
270 1 0.377661 79.5 10.8961 15.504 0 
131 1 0.37743 79.5 11.316 15.2777 0 
86 1 0.418347 79.5 11.7877 15.5402 0 
81 1 0.377631 79.5 12.2517 15.3698 0 
205 1 0.417837 79.5 12.7419 15.1734 0 
57 1 0.417312 79.5 13.2056 15.5167 0 
19 1 0.377048 79.5 13.7379 15.3066 0 
264 1 0.375728 79.5 5.56863 15.596 0 
61 1 0.416969 79.5 6.13321 15.7726 0 
279 1 0.419009 79.5 6.65128 15.9548 0 
56 1 0.417661 79.5 7.08934 15.5984 0 
147 1 0.378206 79.5 7.56006 15.7811 0 
111 1 0.377387 79.5 7.99214 15.9646 0 
62 1 0.419478 79.5 8.41549 15.7424 0 
91 1 0.375891 79.5 8.85378 15.983 0 
226 1 0.418002 79.5 9.2592 15.786 0 
14 1 0.378044 79.5 10.0693 15.6379 0 
144 1 0.417225 79.5 10.4974 15.8048 0 
149 1 0.420339 79.5 10.9324 15.9524 0 
239 1 0.376202 79.5 11.3499 15.7328 0 
303 1 0.377701 79.5 12.2195 15.8545 0 
6 1 0.41784 79.5 12.6909 15.6995 0 
277 1 0.378085 79.5 13.5959 15.8984 0 
98 1 0.376685 79.5 14.124 15.6987 0 
100 1 0.41738 79.5 5.06546 16.0719 0 
180 1 0.4178 79.5 5.66805 16.1706 0 
251 1 0.418401 79.5 6.20894 16.3297 0 
223 1 0.377582 79.5 7.13315 16.1035 0 
273 1 0.375407 79.5 7.57374 16.2443 0 
52 1 0.417492 79.5 8.01717 16.4137 0 
36 1 0.41802 79.5 8.44782 16.2132 0 
44 1 0.376441 79.5 8.87324 16.411 0 
113 1 0.376209 79.5 9.28319 16.2327 0 
128 1 0.417636 79.5 9.68467 16.0033 0 
234 1 0.376567 79.5 10.1108 16.0698 0 
275 1 0.375236 79.5 10.5102 16.2654 0 
18 1 0.417229 79.5 10.9136 16.3979 0 
20 1 0.418644 79.5 11.3506 16.1924 0 
193 1 0.377638 79.5 11.7819 16.006 0 
289 1 0.377045 79.5 12.1857 16.3095 0 
110 1 0.376982 79.5 12.6301 16.1824 0 
295 1 0.376364 79.5 13.1031 16.0418 0 
112 1 0.37724 79.5 13.4981 16.4117 0 
256 1 0.417029 79.5 14.0041 16.2725 0 
236 1 0.417091 79.5 14.5656 16.0811 0 
7 1 0.376836 79.5 5.19445 16.6399 0 
54 1 0.417762 79.5 5.75545 16.7104 0 
88 1 0.377633 79.5 6.28275 16.83 0 
85 1 0.378114 79.5 6.70204 16.4582 0 
13 1 0.376492 79.5 7.15315 16.5616 0 
162 1 0.417925 79.5 7.60171 16.7031 0 
196 1 0.417674 79.5 8.05218 16.8612 0 
64 1 0.37804 79.5 8.45448 16.6561 0 
281 1 0.419313 79.5 8.85415 16.8407 0 
48 1 0.417895 79.5 9.27514 16.6612 0 
247 1 0.417974 79.5 9.70455 16.4765 0 
93 1 0.375858 79.5 10.1389 16.4712 0 
197 1 0.418138 79.5 10.0487 16.8698 0 
53 1 0.418687 79.5 10.5041 16.7341 0 
207 1 0.375123 79.5 10.9267 16.802 0 
278 1 0.377425 79.5 11.3156 16.6401 0 
72 1 0.418442 79.5 11.7468 16.459 0 
2 1 0.418632 79.5 12.1101 16.7733 0 
291 1 0.418671 79.5 12.5583 16.6522 0 
203 1 0.418748 79.5 13.0246 16.5288 0 
126 1 0.377564 79.5 13.8424 16.7922 0 
105 1 0.378261 79.5 14.3581 16.689 0 
66 1 0.417743 79.5 14.9503 16.5399 0 
257 1 0.417584 79.5 4.70072 17.0887 0 
254 1 0.418928 79.5 5.306 17.1671 0 
219 1 0.416465 79.5 5.88249 17.2074 0 
136 1 0.377551 79.5 6.38879 17.2906 0 
124 1 0.377489 79.5 6.75059 16.9182 0 
25 1 0.418251 79.5 7.21393 17.0214 0 
175 1 0.375285 79.5 7.65998 17.1508 0 
152 1 0.419353 79.5 8.08951 17.2947 0 
170 1 0.419066 79.5 8.47905 17.113 0 
143 1 0.378123 79.5 8.87034 17.2745 0 
168 1 0.377281 79.5 9.21616 17.0989 0 
259 1 0.416952 79.5 9.62511 16.9445 0 
67 1 0.375259 79.5 9.92759 17.2813 0 
73 1 0.418056 79.5 10.3627 17.1762 0 
134 1 0.377548 79.5 10.7828 17.1508 0 
214 1 0.375802 79.5 11.2322 17.0725 0 
65 1 0.375901 79.5 11.5565 17.3223 0 
153 1 0.418903 79.5 11.6615 16.9133 0 
10 1 0.377297 79.5 12.0045 17.2067 0 
237 1 0.377021 79.5 12.4429 17.1102 0 
167 1 0.376423 79.5 12.8896 17.004 0 
35 1 0.375085 79.5 13.3578 16.8968 0 
43 1 0.416658 79.5 13.7006 17.274 0 
244 1 0.377185 79.5 14.1963 17.1914 0 
130 1 0.41741 79.5 14.7448 17.0982 0 
158 1 0.378408 79.5 15.3553 17.0166 0 
70 1 0.418537 79.5 4.8874 17.6725 0 
265 1 0.4186 79.5 5.52984 17.6377 0 
183 1 0.418934 79.5 6.06051 17.6814 0 
157 1 0.417922 79.5 6.55903 17.7533 0 
232 1 0.41966 79.5 6.85832 17.3793 0 
294 1 0.420196 79.5 7.31482 17.4864 0 
224 1 0.417151 79.5 7.75085 17.5889 0 
201 1 0.37868 79.5 8.19491 17.6824 0 
177 1 0.417786 79.5 8.58852 17.5819 0 
202 1 0.416907 79.5 9.06589 17.6217 0 
204 1 0.417908 79.5 9.49999 17.3787 0 
228 1 0.377094 79.5 9.43529 17.7729 0 
125 1 0.417497 79.5 9.82709 17.6869 0 
39 1 0.417739 79.5 10.2375 17.5969 0 
40 1 0.417655 79.5 10.6603 17.5332 0 
299 1 0.376562 79.5 11.0886 17.447 0 
119 1 0.418318 79.5 11.4163 17.7047 0 
242 1 0.419369 79.5 11.8791 17.6137 0 
23 1 0.377532 79.5 12.317 17.5249 0 
269 1 0.377027 79.5 12.756 17.4389 0 
297 1 0.418019 79.5 13.2129 17.3614 0 
208 1 0.376279 79.5 13.5255 17.7354 0 
182 1 0.376421 79.5 14.0109 17.6657 0 
286 1 0.417076 79.5 14.544 17.6025 0 
179 1 0.419049 79.5 15.1579 17.5539 0 
1 1 0.416656 79.5 4.37547 18.0733 0 
263 1 0.375892 79.5 5.25236 18.0616 0 
243 1 0.376024 79.5 5.76247 18.0919 0 
217 1 0.420187 79.5 6.2551 18.143 0 
117 1 0.376414 79.5 7.02933 17.8394 0 
186 1 0.417704 79.5 6.7416 18.2014 0 
189 1 0.374207 79.5 7.47011 17.9263 0 
213 1 0.418946 79.5 7.91747 18.0006 0 
222 1 0.376423 79.5 8.36939 18.0251 0 
99 1 0.418162 79.5 8.78055 17.9779 0 
51 1 0.378133 79.5 9.18526 18.0542 0 
280 1 0.376116 79.5 9.65828 18.0758 0 
198 1 0.418579 79.5 10.0927 18.0194 0 
102 1 0.419434 79.5 10.5212 17.9372 0 
106 1 0.418321 79.5 10.9533 17.8519 0 
268 1 0.418081 79.5 11.2884 18.102 0 
233 1 0.376541 79.5 11.7378 18.0012 0 
31 1 0.376295 79.5 12.1807 17.9334 0 
240 1 0.417923 79.5 12.6202 17.8638 0 
115 1 0.377962 79.5 13.0678 17.8059 0 
185 1 0.37559 79.5 13.3548 18.1607 0 
79 1 0.376387 79.5 13.8174 18.1006 0 
274 1 0.37582 79.5 14.3195 18.0481 0 
191 1 0.419678 79.5 14.8993 18.04 0 
173 1 0.377039 79.5 15.5549 18.0144 0 
90 1 0.418215 79.5 4.85973 18.3981 0 
298 1 0.374614 79.5 5.46904 18.491 0 
260 1 0.417822 79.5 5.96564 18.5396 0 
200 1 0.417021 79.5 6.46596 18.5894 0 
42 1 0.418538 79.5 6.94499 18.6401 0 
188 1 0.417316 79.5 7.20427 18.2678 0 
210 1 0.417016 79.5 7.65346 18.3442 0 
97 1 0.377275 79.5 8.11104 18.3677 0 
108 1 0.37715 79.5 8.52708 18.3716 0 
140 1 0.378892 79.5 8.92363 18.3757 0 
132 1 0.378247 79.5 9.32064 18.4051 0 
68 1 0.37735 79.5 9.69334 18.4449 0 
287 1 0.378509 79.5 10.0674 18.4133 0 
178 1 0.415965 79.5 10.4584 18.3475 0 
151 1 0.377236 79.5 10.8449 18.2563 0 
22 1 0.376996 79.5 11.1561 18.4749 0 
190 1 0.417687 79.5 11.6049 18.3836 0 
164 1 0.419166 79.5 12.0402 18.326 0 
46 1 0.377328 79.5 12.4782 18.2747 0 
80 1 0.376209 79.5 12.749 18.6371 0 
181 1 0.377496 79.5 12.9067 18.2253 0 
29 1 0.417393 79.5 13.1851 18.5873 0 
272 1 0.378957 79.5 13.6425 18.5323 0 
160 1 0.418475 79.5 14.1191 18.4878 0 
241 1 0.375449 79.5 14.6217 18.452 0 
107 1 0.375813 79.5 15.2534 18.4713 0 
4 1 0.418796 79.5 4.477 18.8408 0 
258 1 0.419432 79.5 5.14032 18.8656 0 
212 1 0.41762 79.5 5.68184 18.948 0 
199 1 0.417759 79.5 6.19057 18.9787 0 
148 1 0.418606 79.5 6.68649 19.0188 0 
63 1 0.377654 79.5 7.15066 19.0383 0 
245 1 0.376779 79.5 7.39549 18.6836 0 
129 1 0.417621 79.5 7.60765 19.0478 0 
163 1 0.376966 79.5 7.85841 18.7089 0 
261 1 0.377169 79.5 8.26959 18.7234 0 
75 1 0.376447 79.5 8.04525 19.075 0 
118 1 0.41851 79.5 8.68455 18.7375 0 
59 1 0.419658 79.5 8.45938 19.0904 0 
15 1 0.377305 79.5 8.88812 19.107 0 
94 1 0.419162 79.5 9.10066 18.7541 0 
69 1 0.376926 79.5 9.4957 18.769 0 
276 1 0.417911 79.5 9.90241 18.7794 0 
92 1 0.417624 79.5 10.3116 18.737 0 
192 1 0.418338 79.5 10.5125 19.0956 0 
262 1 0.418034 79.5 10.7229 18.6838 0 
230 1 0.376846 79.5 11.0811 18.84 0 
229 1 0.41843 79.5 11.4745 18.7777 0 
155 1 0.37768 79.5 11.8918 18.7231 0 
255 1 0.419607 79.5 12.3246 18.675 0 
127 1 0.417806 79.5 12.1588 19.0723 0 
9 1 0.378113 79.5 12.5874 19.0409 0 
101 1 0.376457 79.5 13.0002 19.0074 0 
24 1 0.416559 79.5 13.459 18.9686 0 
174 1 0.419338 79.5 13.9272 18.9437 0 
282 1 0.416306 79.5 14.4198 18.91 0 
176 1 0.376448 79.5 14.9296 18.8387 0 
146 1 0.418691 79.5 15.7284 18.8326 0 
84 1 0.417941 79.5 4.15919 19.386 0 
120 1 0.378184 79.5 4.86353 19.2791 0 
33 1 0.378072 79.5 5.40633 19.3323 0 
169 1 0.378453 79.5 5.93544 19.3715 0 
166 1 0.418977 79.5 6.42148 19.3982 0 
252 1 0.378093 79.5 6.91066 19.4062 0 
122 1 0.41785 79.5 7.36383 19.4155 0 
301 1 0.41979 79.5 7.82342 19.4339 0 
184 1 0.417741 79.5 8.24878 19.4635 0 
218 1 0.418811 79.5 8.67362 19.4499 0 
87 1 0.377593 79.5 9.08625 19.4559 0 
12 1 0.37772 79.5 9.27828 19.1204 0 
296 1 0.418792 79.5 9.4815 19.4848 0 
121 1 0.418093 79.5 9.67477 19.1207 0 
253 1 0.415824 79.5 9.89564 19.4661 0 
216 1 0.376432 79.5 10.104 19.1205 0 
47 1 0.418289 79.5 10.3114 19.459 0 
283 1 0.377483 79.5 10.8968 19.1642 0 
89 1 0.376485 79.5 10.7031 19.4894 0 
11 1 0.377588 79.5 11.086 19.4928 0 
209 1 0.419672 79.5 11.3083 19.164 0 
41 1 0.375472 79.5 11.5454 19.4775 0 
58 1 0.415805 79.5 11.7363 19.1154 0 
302 1 0.377055 79.5 11.9709 19.4556 0 
49 1 0.419815 79.5 12.3956 19.442 0 
17 1 0.37517 79.5 12.8169 19.4096 0 
221 1 0.419252 79.5 13.2608 19.3832 0 
266 1 0.376034 79.5 13.7294 19.3718 0 
3 1 0.376593 79.5 14.1979 19.3524 0 
171 1 0.417726 79.5 14.7337 19.3091 0 
30 1 0.376677 79.5 15.2844 19.1987 0 
71 1 0.377916 79.5 4.62051 19.7091 0 
50 1 0.378881 79.5 5.15262 19.7331 0 
123 1 0.416947 79.5 5.67351 19.7529 0 
135 1 0.377153 79.5 6.17472 19.7819 0 
21 1 0.420824 79.5 6.66682 19.7873 0 
161 1 0.416955 79.5 7.13938 19.7934 0 
194 1 0.416887 79.5 7.60498 19.7968 0 
32 1 0.375477 79.5 8.04758 19.8166 0 
38 1 0.377736 79.5 8.4718 19.8168 0 
145 1 0.419666 79.5 8.89301 19.8035 0 
27 1 0.375782 79.5 9.28984 19.8249 0 
8 1 0.378024 79.5 9.69309 19.8221 0 
133 1 0.418748 79.5 10.1047 19.816 0 
284 1 0.376238 79.5 10.5019 19.8201 0 
285 1 0.37676 79.5 10.8945 19.8216 0 
293 1 0.417075 79.5 11.3244 19.8053 0 
26 1 0.417817 79.5 11.768 19.8026 0 
220 1 0.375738 79.5 12.1857 19.8145 0 
288 1 0.377512 79.5 12.6055 19.8115 0 
165 1 0.417616 79.5 13.0415 19.7912 0 
45 1 0.41618 79.5 13.5157 19.7791 0 
114 1 0.376368 79.5 13.9852 19.7665 0 
83 1 0.419111 79.5 14.4896 19.7465 0 
267 1 0.418107 79.5 15.0761 19.7071 0 
238 1 0.417818 79.5 15.6894 19.5993 0 
