# LAMMPS data file for rigid bodies

303 atoms

1 atom types

0.0 	 20.0 	 xlo xhi 
0.0 	 20.0 	 ylo yhi 
-1.0 	 1.0 	 zlo zhi 

Atoms

248 1 0.417624 79.5 8.9739 13.5249 0 
290 1 0.417552 79.5 9.79227 13.4714 0 
142 1 0.376502 79.5 10.8396 13.5246 0 
116 1 0.418074 79.5 7.3031 14.0574 0 
156 1 0.41736 79.5 7.92162 14.1858 0 
141 1 0.417537 79.5 8.40937 13.8242 0 
137 1 0.377547 79.5 8.92701 14.1568 0 
154 1 0.377463 79.5 9.40702 13.8999 0 
206 1 0.377502 79.5 9.86351 14.1451 0 
138 1 0.417163 79.5 10.3059 13.8055 0 
77 1 0.416408 79.5 10.8025 14.1074 0 
159 1 0.418141 79.5 11.4088 13.836 0 
187 1 0.376835 79.5 6.78925 14.4912 0 
78 1 0.376793 79.5 7.49298 14.6016 0 
300 1 0.417817 79.5 8.47459 14.4308 0 
235 1 0.417949 79.5 9.38947 14.4405 0 
270 1 0.377661 79.5 10.3105 14.3948 0 
104 1 0.417492 79.5 10.7434 14.6604 0 
5 1 0.417956 79.5 11.2604 14.4234 0 
82 1 0.37548 79.5 11.8207 14.2712 0 
139 1 0.377813 79.5 12.3761 14.2311 0 
19 1 0.377048 79.5 13.3661 14.6445 0 
211 1 0.376915 79.5 6.56393 15.0891 0 
34 1 0.376733 79.5 7.08415 14.9407 0 
271 1 0.419038 79.5 8.03194 14.7596 0 
74 1 0.418792 79.5 8.52088 14.9769 0 
172 1 0.377906 79.5 8.95649 14.7085 0 
55 1 0.377258 79.5 9.41439 14.9606 0 
215 1 0.417318 79.5 9.852 14.676 0 
246 1 0.419558 79.5 10.2923 14.9328 0 
28 1 0.376324 79.5 11.1382 14.9487 0 
60 1 0.378985 79.5 11.6505 14.7774 0 
195 1 0.376076 79.5 12.1393 14.7831 0 
277 1 0.378085 79.5 12.7179 14.6833 0 
292 1 0.419322 79.5 5.848 15.1252 0 
76 1 0.376361 79.5 6.24692 15.5297 0 
61 1 0.416969 79.5 7.21583 15.4202 0 
56 1 0.417661 79.5 7.63766 15.1174 0 
103 1 0.376732 79.5 8.10998 15.2974 0 
231 1 0.418206 79.5 8.5748 15.4809 0 
227 1 0.419731 79.5 8.99918 15.214 0 
37 1 0.376521 79.5 9.42762 15.4553 0 
225 1 0.418808 79.5 9.84353 15.1945 0 
96 1 0.375974 79.5 10.2678 15.4306 0 
131 1 0.37743 79.5 10.7011 15.1858 0 
239 1 0.376202 79.5 11.0987 15.4367 0 
81 1 0.377631 79.5 11.5188 15.2211 0 
6 1 0.41784 79.5 11.9766 15.3559 0 
95 1 0.378511 79.5 12.4564 15.1663 0 
112 1 0.37724 79.5 12.7607 15.5345 0 
57 1 0.417312 79.5 13.0774 15.1284 0 
205 1 0.417837 79.5 13.6703 15.2865 0 
279 1 0.419009 79.5 5.75308 15.7926 0 
251 1 0.418401 79.5 6.75867 15.6542 0 
62 1 0.419478 79.5 7.27787 15.9153 0 
249 1 0.37714 79.5 7.69971 15.6257 0 
150 1 0.42017 79.5 8.15089 15.7841 0 
128 1 0.417636 79.5 8.61325 15.9538 0 
91 1 0.375891 79.5 9.03142 15.6969 0 
14 1 0.378044 79.5 9.45527 15.9167 0 
250 1 0.419005 79.5 9.8487 15.686 0 
144 1 0.417225 79.5 10.2613 15.9138 0 
149 1 0.420339 79.5 10.6747 15.6656 0 
109 1 0.416555 79.5 11.0935 15.9093 0 
86 1 0.418347 79.5 11.532 15.6886 0 
303 1 0.377701 79.5 11.9193 15.9263 0 
295 1 0.376364 79.5 12.3229 15.7074 0 
110 1 0.376982 79.5 12.7483 16.0022 0 
203 1 0.418748 79.5 13.2382 15.6963 0 
98 1 0.376685 79.5 13.6753 15.957 0 
236 1 0.417091 79.5 14.1778 15.6374 0 
180 1 0.4178 79.5 5.27667 16.1529 0 
100 1 0.41738 79.5 5.91185 16.348 0 
147 1 0.378206 79.5 6.34898 16.027 0 
111 1 0.377387 79.5 6.84767 16.1629 0 
273 1 0.375407 79.5 7.35358 16.3724 0 
85 1 0.378114 79.5 7.74695 16.1023 0 
36 1 0.41802 79.5 8.19194 16.2636 0 
247 1 0.417974 79.5 8.63948 16.4119 0 
226 1 0.418002 79.5 9.05506 16.1529 0 
259 1 0.416952 79.5 9.48423 16.3661 0 
234 1 0.376567 79.5 9.87276 16.1591 0 
275 1 0.375236 79.5 10.2673 16.3711 0 
20 1 0.418644 79.5 10.6674 16.1541 0 
72 1 0.418442 79.5 11.0788 16.379 0 
193 1 0.377638 79.5 11.4909 16.1678 0 
18 1 0.417229 79.5 11.8805 16.3998 0 
289 1 0.377045 79.5 12.3129 16.1858 0 
35 1 0.375085 79.5 13.1741 16.2173 0 
256 1 0.417029 79.5 14.1223 16.2562 0 
16 1 0.418857 79.5 14.6755 16.0836 0 
264 1 0.375728 79.5 4.8687 16.6314 0 
257 1 0.417584 79.5 5.46676 16.7164 0 
88 1 0.377633 79.5 6.01732 16.8555 0 
223 1 0.377582 79.5 6.44746 16.4981 0 
13 1 0.376492 79.5 6.93902 16.6071 0 
64 1 0.37804 79.5 7.41589 16.7959 0 
113 1 0.376209 79.5 7.80867 16.5578 0 
44 1 0.376441 79.5 8.23867 16.712 0 
196 1 0.417674 79.5 8.67333 16.8498 0 
48 1 0.417895 79.5 9.07852 16.6113 0 
53 1 0.418687 79.5 9.50333 16.8146 0 
93 1 0.375858 79.5 9.88642 16.6007 0 
73 1 0.418056 79.5 10.2764 16.8019 0 
207 1 0.375123 79.5 10.6689 16.603 0 
299 1 0.376562 79.5 11.0559 16.8097 0 
214 1 0.375802 79.5 11.4637 16.6279 0 
153 1 0.418903 79.5 11.8581 16.8725 0 
2 1 0.418632 79.5 12.2925 16.6581 0 
278 1 0.377425 79.5 12.7136 16.4648 0 
291 1 0.418671 79.5 13.1088 16.7125 0 
126 1 0.377564 79.5 13.5912 16.4684 0 
105 1 0.378261 79.5 14.0112 16.7623 0 
244 1 0.377185 79.5 14.5208 16.7276 0 
66 1 0.417743 79.5 15.1058 16.5499 0 
254 1 0.418928 79.5 5.00889 17.1839 0 
1 1 0.416656 79.5 5.60747 17.2329 0 
7 1 0.376836 79.5 6.13348 17.3252 0 
54 1 0.417762 79.5 6.51395 16.964 0 
25 1 0.418251 79.5 7.00394 17.0517 0 
124 1 0.377489 79.5 7.46938 17.2136 0 
52 1 0.417492 79.5 7.8617 17.0135 0 
162 1 0.417925 79.5 8.29535 17.1502 0 
197 1 0.418138 79.5 8.7347 17.2747 0 
281 1 0.419313 79.5 9.11575 17.0582 0 
204 1 0.417908 79.5 9.52386 17.2551 0 
67 1 0.375259 79.5 9.89129 17.0396 0 
39 1 0.417739 79.5 10.2646 17.2377 0 
134 1 0.377548 79.5 10.6603 17.029 0 
119 1 0.418318 79.5 11.0501 17.2245 0 
269 1 0.377027 79.5 11.4487 17.0599 0 
242 1 0.419369 79.5 11.831 17.3322 0 
10 1 0.377297 79.5 12.2602 17.1086 0 
237 1 0.377021 79.5 12.6776 16.9504 0 
297 1 0.418019 79.5 13.068 17.2244 0 
43 1 0.416658 79.5 13.5209 16.9692 0 
167 1 0.376423 79.5 13.9277 17.221 0 
130 1 0.41741 79.5 14.4471 17.2775 0 
158 1 0.378408 79.5 14.9863 17.1061 0 
70 1 0.418537 79.5 4.55841 17.644 0 
90 1 0.418215 79.5 5.22943 17.6915 0 
219 1 0.416465 79.5 5.76523 17.7225 0 
136 1 0.377551 79.5 6.62304 17.4146 0 
294 1 0.420196 79.5 7.09194 17.4984 0 
175 1 0.375285 79.5 7.54768 17.6047 0 
152 1 0.419353 79.5 7.95032 17.4879 0 
170 1 0.419066 79.5 8.39032 17.5884 0 
202 1 0.416907 79.5 8.82253 17.6822 0 
168 1 0.377281 79.5 9.16843 17.4897 0 
143 1 0.378123 79.5 9.4995 17.6792 0 
125 1 0.417497 79.5 9.88568 17.5023 0 
40 1 0.417655 79.5 10.6447 17.4658 0 
228 1 0.377094 79.5 10.2611 17.6495 0 
106 1 0.418321 79.5 11.0322 17.6442 0 
46 1 0.377328 79.5 11.436 17.4898 0 
233 1 0.376541 79.5 11.8114 17.7811 0 
31 1 0.376295 79.5 12.2227 17.5163 0 
23 1 0.377532 79.5 12.6427 17.4118 0 
208 1 0.376279 79.5 13.0681 17.6988 0 
182 1 0.376421 79.5 13.4851 17.4564 0 
241 1 0.375449 79.5 14.0255 17.6458 0 
179 1 0.419049 79.5 15.0167 17.6361 0 
4 1 0.418796 79.5 4.88979 18.1335 0 
263 1 0.375892 79.5 5.44434 18.1788 0 
183 1 0.418934 79.5 5.98106 18.1684 0 
232 1 0.41966 79.5 6.28858 17.7783 0 
298 1 0.374614 79.5 6.49315 18.2168 0 
157 1 0.417922 79.5 6.77386 17.8561 0 
42 1 0.418538 79.5 7.25471 17.9271 0 
117 1 0.376414 79.5 7.71538 17.9646 0 
224 1 0.417151 79.5 8.12585 17.9396 0 
177 1 0.417786 79.5 8.57213 18.0116 0 
132 1 0.378247 79.5 9.09718 17.966 0 
222 1 0.376423 79.5 9.47677 18.0537 0 
51 1 0.378133 79.5 9.83899 17.932 0 
280 1 0.376116 79.5 10.2047 18.0203 0 
198 1 0.418579 79.5 10.5975 17.9126 0 
102 1 0.419434 79.5 10.9904 18.0578 0 
268 1 0.418081 79.5 11.4077 17.9127 0 
164 1 0.419166 79.5 11.9548 18.205 0 
65 1 0.375901 79.5 12.2337 17.8967 0 
181 1 0.377496 79.5 12.6522 17.8407 0 
115 1 0.377962 79.5 13.2285 18.1071 0 
240 1 0.417923 79.5 13.6129 17.8883 0 
185 1 0.37559 79.5 14.0704 18.0954 0 
286 1 0.417076 79.5 14.5096 17.8209 0 
173 1 0.377039 79.5 15.0218 18.1826 0 
107 1 0.375813 79.5 15.5335 17.8928 0 
265 1 0.4186 79.5 4.46039 18.5184 0 
260 1 0.417822 79.5 5.10108 18.6395 0 
243 1 0.376024 79.5 5.71278 18.5658 0 
200 1 0.417021 79.5 6.22483 18.5881 0 
186 1 0.417704 79.5 6.70747 18.6375 0 
217 1 0.420187 79.5 6.97618 18.2835 0 
188 1 0.417316 79.5 7.45661 18.3264 0 
189 1 0.374207 79.5 7.89563 18.3326 0 
99 1 0.418162 79.5 8.31996 18.3518 0 
97 1 0.377275 79.5 8.75846 18.3607 0 
213 1 0.418946 79.5 9.15555 18.36 0 
140 1 0.378892 79.5 9.54988 18.4189 0 
261 1 0.377169 79.5 9.91804 18.3412 0 
287 1 0.378509 79.5 10.3022 18.3792 0 
151 1 0.377236 79.5 10.6807 18.331 0 
22 1 0.376996 79.5 11.1691 18.4067 0 
190 1 0.417687 79.5 11.5506 18.3045 0 
229 1 0.41843 79.5 12.0993 18.6265 0 
255 1 0.419607 79.5 12.4171 18.2769 0 
80 1 0.376209 79.5 12.8384 18.2227 0 
272 1 0.378957 79.5 12.8807 18.637 0 
274 1 0.37582 79.5 13.2648 18.5442 0 
24 1 0.416559 79.5 13.6661 18.3788 0 
79 1 0.376387 79.5 14.0917 18.5413 0 
191 1 0.419678 79.5 14.5418 18.3429 0 
146 1 0.418691 79.5 15.5084 18.5077 0 
120 1 0.378184 79.5 4.14348 19.0488 0 
258 1 0.419432 79.5 4.72734 19.0854 0 
169 1 0.378453 79.5 5.48083 18.9546 0 
212 1 0.41762 79.5 5.97726 18.9878 0 
148 1 0.418606 79.5 6.45909 19.0279 0 
122 1 0.41785 79.5 6.93908 19.034 0 
163 1 0.376966 79.5 7.19518 18.6745 0 
166 1 0.418977 79.5 7.41425 19.048 0 
201 1 0.37868 79.5 7.65494 18.6978 0 
75 1 0.376447 79.5 7.84762 19.0735 0 
210 1 0.417016 79.5 8.07736 18.712 0 
59 1 0.419658 79.5 8.28175 19.0799 0 
108 1 0.37715 79.5 8.51163 18.7168 0 
184 1 0.417741 79.5 8.69842 19.0991 0 
118 1 0.41851 79.5 8.917 18.735 0 
87 1 0.377593 79.5 9.09455 19.1087 0 
12 1 0.37772 79.5 9.31371 18.7424 0 
69 1 0.376926 79.5 9.70414 18.7569 0 
121 1 0.418093 79.5 9.48855 19.0978 0 
68 1 0.37735 79.5 10.0793 18.7236 0 
94 1 0.419162 79.5 9.90386 19.0959 0 
92 1 0.417624 79.5 10.4761 18.7312 0 
276 1 0.417911 79.5 10.3171 19.1101 0 
262 1 0.418034 79.5 10.8854 18.6824 0 
192 1 0.418338 79.5 10.7282 19.073 0 
178 1 0.415965 79.5 11.287 18.7835 0 
58 1 0.415805 79.5 11.69 18.6962 0 
127 1 0.417806 79.5 11.8949 19.0633 0 
165 1 0.417616 79.5 12.3109 19.0599 0 
9 1 0.378113 79.5 12.5013 18.6891 0 
302 1 0.377055 79.5 12.735 19.0527 0 
101 1 0.376457 79.5 13.1422 18.9885 0 
29 1 0.417393 79.5 13.5804 18.8858 0 
221 1 0.419252 79.5 14.0292 18.9734 0 
160 1 0.418475 79.5 14.5132 18.8561 0 
176 1 0.376448 79.5 14.9902 18.716 0 
238 1 0.417818 79.5 15.9025 18.9864 0 
71 1 0.377916 79.5 5.19032 19.3076 0 
199 1 0.417759 79.5 5.72731 19.386 0 
245 1 0.376779 79.5 6.227 19.4145 0 
252 1 0.378093 79.5 6.69586 19.4153 0 
301 1 0.41979 79.5 7.17094 19.4176 0 
63 1 0.377654 79.5 7.62763 19.4261 0 
129 1 0.417621 79.5 8.0637 19.4365 0 
15 1 0.377305 79.5 8.50161 19.4567 0 
38 1 0.377736 79.5 8.89616 19.4598 0 
27 1 0.375782 79.5 9.28836 19.4525 0 
47 1 0.418289 79.5 9.6827 19.4638 0 
296 1 0.418792 79.5 10.1002 19.4595 0 
89 1 0.376485 79.5 10.5125 19.4551 0 
216 1 0.376432 79.5 10.8989 19.4497 0 
283 1 0.377483 79.5 11.5008 19.122 0 
230 1 0.376846 79.5 11.1153 19.1382 0 
284 1 0.376238 79.5 11.2929 19.4706 0 
155 1 0.37768 79.5 11.7095 19.4498 0 
41 1 0.375472 79.5 12.1024 19.448 0 
26 1 0.417817 79.5 12.5252 19.4441 0 
17 1 0.37517 79.5 12.9527 19.4115 0 
282 1 0.416306 79.5 13.3918 19.3538 0 
45 1 0.41618 79.5 13.8404 19.3899 0 
174 1 0.419338 79.5 14.3448 19.348 0 
266 1 0.376034 79.5 14.8408 19.2489 0 
30 1 0.376677 79.5 15.3354 19.1272 0 
84 1 0.417941 79.5 4.35717 19.6118 0 
50 1 0.378881 79.5 4.89749 19.7024 0 
123 1 0.416947 79.5 5.42955 19.7548 0 
33 1 0.378072 79.5 5.9798 19.7842 0 
135 1 0.377153 79.5 6.46056 19.7908 0 
21 1 0.420824 79.5 6.92703 19.7915 0 
161 1 0.416955 79.5 7.40053 19.7946 0 
194 1 0.416887 79.5 7.84495 19.7974 0 
218 1 0.418811 79.5 8.29011 19.7988 0 
32 1 0.375477 79.5 8.70208 19.8164 0 
145 1 0.419666 79.5 9.10246 19.802 0 
8 1 0.378024 79.5 9.49982 19.8179 0 
253 1 0.415824 79.5 9.89586 19.8155 0 
293 1 0.417075 79.5 10.3114 19.8102 0 
133 1 0.418748 79.5 10.7226 19.8026 0 
285 1 0.37676 79.5 11.1167 19.8168 0 
209 1 0.419672 79.5 11.5164 19.7998 0 
11 1 0.377588 79.5 11.92 19.8138 0 
220 1 0.375738 79.5 12.3173 19.8139 0 
288 1 0.377512 79.5 12.7412 19.8114 0 
49 1 0.419815 79.5 13.1827 19.7842 0 
114 1 0.376368 79.5 13.63 19.7871 0 
3 1 0.376593 79.5 14.1073 19.7754 0 
171 1 0.417726 79.5 14.6317 19.7407 0 
267 1 0.418107 79.5 15.1644 19.6769 0 
83 1 0.419111 79.5 15.7362 19.6046 0 
