# LAMMPS data file for rigid bodies

303 atoms

1 atom types

0.0 	 20.0 	 xlo xhi 
0.0 	 20.0 	 ylo yhi 
-1.0 	 1.0 	 zlo zhi 

Atoms

248 1 0.417624 79.5 9.23891 13.4333 0 
290 1 0.417552 79.5 9.90136 13.6026 0 
142 1 0.376502 79.5 10.5304 13.4586 0 
141 1 0.417537 79.5 7.69186 14.1393 0 
156 1 0.41736 79.5 8.29312 13.9677 0 
154 1 0.377463 79.5 8.86993 13.9841 0 
137 1 0.377547 79.5 9.40416 13.985 0 
206 1 0.377502 79.5 9.85655 14.1826 0 
215 1 0.417318 79.5 10.3701 14.0197 0 
138 1 0.417163 79.5 10.9338 13.909 0 
159 1 0.418141 79.5 11.5119 13.8388 0 
82 1 0.37548 79.5 12.1047 13.8908 0 
187 1 0.376835 79.5 7.09991 14.3823 0 
300 1 0.417817 79.5 8.15681 14.5664 0 
227 1 0.419731 79.5 8.69878 14.506 0 
172 1 0.377906 79.5 9.21372 14.4654 0 
235 1 0.417949 79.5 9.66869 14.6501 0 
225 1 0.418808 79.5 10.2181 14.5576 0 
246 1 0.419558 79.5 10.733 14.4611 0 
104 1 0.417492 79.5 11.2711 14.4013 0 
28 1 0.376324 79.5 11.7985 14.4048 0 
5 1 0.417956 79.5 12.356 14.4058 0 
139 1 0.377813 79.5 12.921 14.3177 0 
211 1 0.376915 79.5 7.05921 14.935 0 
116 1 0.418074 79.5 7.60387 14.7326 0 
56 1 0.417661 79.5 8.03175 15.1019 0 
271 1 0.419038 79.5 8.56074 15.0139 0 
231 1 0.418206 79.5 9.08917 14.9642 0 
55 1 0.377258 79.5 9.55149 15.1076 0 
250 1 0.419005 79.5 10.0423 15.028 0 
270 1 0.377661 79.5 10.5467 14.9616 0 
77 1 0.416408 79.5 11.0428 14.8992 0 
131 1 0.37743 79.5 11.5641 14.8729 0 
60 1 0.378985 79.5 12.0763 14.8774 0 
195 1 0.376076 79.5 12.6352 14.8815 0 
277 1 0.378085 79.5 13.1984 14.8128 0 
279 1 0.419009 79.5 5.98028 15.5034 0 
292 1 0.419322 79.5 6.48886 15.1136 0 
34 1 0.376733 79.5 6.99359 15.4431 0 
78 1 0.376793 79.5 7.51149 15.2585 0 
74 1 0.418792 79.5 8.39125 15.5032 0 
150 1 0.42017 79.5 8.89183 15.4429 0 
37 1 0.376521 79.5 9.36347 15.4908 0 
91 1 0.375891 79.5 9.87018 15.466 0 
144 1 0.417225 79.5 10.3629 15.4114 0 
96 1 0.375974 79.5 10.8381 15.3601 0 
109 1 0.416555 79.5 11.3375 15.3177 0 
81 1 0.377631 79.5 11.8392 15.3139 0 
6 1 0.41784 79.5 12.3452 15.3299 0 
95 1 0.378511 79.5 12.8645 15.3459 0 
16 1 0.418857 79.5 13.3949 15.3148 0 
19 1 0.377048 79.5 13.9428 15.1701 0 
61 1 0.416969 79.5 5.50852 15.9709 0 
147 1 0.378206 79.5 6.52737 15.7266 0 
251 1 0.418401 79.5 7.01788 15.9539 0 
76 1 0.376361 79.5 7.43401 15.7377 0 
249 1 0.37714 79.5 7.90507 15.5894 0 
62 1 0.419478 79.5 8.21909 15.985 0 
36 1 0.41802 79.5 8.68586 15.9188 0 
128 1 0.417636 79.5 9.15629 15.8939 0 
226 1 0.418002 79.5 9.65985 15.8546 0 
14 1 0.378044 79.5 10.1672 15.8252 0 
275 1 0.375236 79.5 10.6415 15.7912 0 
149 1 0.420339 79.5 11.1143 15.7547 0 
86 1 0.418347 79.5 11.6223 15.7417 0 
193 1 0.377638 79.5 12.1027 15.7607 0 
295 1 0.376364 79.5 12.6025 15.7784 0 
98 1 0.376685 79.5 13.1229 15.7881 0 
57 1 0.417312 79.5 13.7022 15.7666 0 
205 1 0.417837 79.5 14.2966 15.6954 0 
100 1 0.41738 79.5 6.08368 16.1076 0 
180 1 0.4178 79.5 6.58447 16.2743 0 
223 1 0.377582 79.5 7.06053 16.4121 0 
85 1 0.378114 79.5 7.50155 16.3782 0 
103 1 0.376732 79.5 7.75984 16.0405 0 
273 1 0.375407 79.5 8.01414 16.4182 0 
44 1 0.376441 79.5 8.48428 16.378 0 
48 1 0.417895 79.5 8.94732 16.3269 0 
247 1 0.417974 79.5 9.45059 16.2599 0 
53 1 0.418687 79.5 9.96034 16.2125 0 
93 1 0.375858 79.5 10.4505 16.176 0 
234 1 0.376567 79.5 10.9122 16.1641 0 
20 1 0.418644 79.5 11.3947 16.1575 0 
239 1 0.376202 79.5 11.8717 16.1682 0 
110 1 0.376982 79.5 12.3412 16.1679 0 
35 1 0.375085 79.5 12.855 16.1885 0 
203 1 0.418748 79.5 13.3983 16.2226 0 
256 1 0.417029 79.5 13.9677 16.2489 0 
236 1 0.417091 79.5 14.5702 16.2352 0 
264 1 0.375728 79.5 5.20894 16.496 0 
257 1 0.417584 79.5 5.77505 16.5786 0 
88 1 0.377633 79.5 6.28671 16.6825 0 
111 1 0.377387 79.5 6.78025 16.77 0 
124 1 0.377489 79.5 7.27574 16.7995 0 
13 1 0.376492 79.5 7.74339 16.7623 0 
113 1 0.376209 79.5 8.2624 16.7675 0 
196 1 0.417674 79.5 8.75078 16.7544 0 
162 1 0.417925 79.5 9.25938 16.6633 0 
259 1 0.416952 79.5 9.74937 16.6064 0 
73 1 0.418056 79.5 10.2509 16.5652 0 
18 1 0.417229 79.5 10.7136 16.5532 0 
72 1 0.418442 79.5 11.1805 16.557 0 
289 1 0.377045 79.5 11.6522 16.5554 0 
303 1 0.377701 79.5 12.1074 16.5652 0 
291 1 0.418671 79.5 12.5824 16.5735 0 
237 1 0.377021 79.5 13.0936 16.6036 0 
126 1 0.377564 79.5 13.6374 16.6754 0 
112 1 0.37724 79.5 14.1942 16.7177 0 
66 1 0.417743 79.5 14.8078 16.7621 0 
70 1 0.418537 79.5 4.85567 16.981 0 
254 1 0.418928 79.5 5.45439 17.0444 0 
7 1 0.376836 79.5 5.99223 17.0982 0 
54 1 0.417762 79.5 6.49155 17.1503 0 
136 1 0.377551 79.5 6.98681 17.1857 0 
25 1 0.418251 79.5 7.45331 17.198 0 
52 1 0.417492 79.5 7.91963 17.1524 0 
152 1 0.419353 79.5 8.35009 17.1796 0 
281 1 0.419313 79.5 8.76887 17.1928 0 
197 1 0.418138 79.5 9.16881 17.0751 0 
67 1 0.375259 79.5 9.60029 16.9926 0 
99 1 0.418162 79.5 10.054 16.9474 0 
299 1 0.376562 79.5 10.5207 16.9333 0 
40 1 0.417655 79.5 10.3314 17.2995 0 
207 1 0.375123 79.5 10.964 16.9295 0 
134 1 0.377548 79.5 10.7737 17.2865 0 
214 1 0.375802 79.5 11.4363 16.9219 0 
119 1 0.418318 79.5 11.2203 17.2842 0 
278 1 0.377425 79.5 11.8894 16.9382 0 
2 1 0.418632 79.5 11.6776 17.3113 0 
269 1 0.377027 79.5 12.3346 16.9732 0 
240 1 0.417923 79.5 12.8119 16.9907 0 
167 1 0.376423 79.5 13.308 17.0127 0 
43 1 0.416658 79.5 13.8655 17.1287 0 
105 1 0.378261 79.5 14.4012 17.1792 0 
244 1 0.377185 79.5 15.0153 17.2734 0 
90 1 0.418215 79.5 4.52837 17.5112 0 
265 1 0.4186 79.5 5.15174 17.5369 0 
219 1 0.416465 79.5 5.71112 17.5361 0 
1 1 0.416656 79.5 6.2269 17.5743 0 
232 1 0.41966 79.5 6.73111 17.5919 0 
64 1 0.37804 79.5 7.19908 17.5916 0 
294 1 0.420196 79.5 7.71122 17.5687 0 
175 1 0.375285 79.5 8.14574 17.574 0 
170 1 0.419066 79.5 8.5811 17.5885 0 
168 1 0.377281 79.5 9.01357 17.5441 0 
143 1 0.378123 79.5 9.32411 17.7628 0 
125 1 0.417497 79.5 9.45044 17.3867 0 
228 1 0.377094 79.5 9.7243 17.7282 0 
204 1 0.417908 79.5 9.88016 17.3391 0 
198 1 0.418579 79.5 10.1416 17.6904 0 
106 1 0.418321 79.5 10.5824 17.6554 0 
39 1 0.417739 79.5 11.0221 17.662 0 
153 1 0.418903 79.5 11.4633 17.6926 0 
46 1 0.377328 79.5 11.9042 17.7099 0 
10 1 0.377297 79.5 12.1184 17.3437 0 
242 1 0.419369 79.5 12.3322 17.7601 0 
23 1 0.377532 79.5 12.5563 17.3796 0 
297 1 0.418019 79.5 13.0168 17.4151 0 
158 1 0.378408 79.5 13.4911 17.4211 0 
130 1 0.41741 79.5 14.0839 17.6109 0 
182 1 0.376421 79.5 14.6365 17.6174 0 
179 1 0.419049 79.5 15.4689 17.6147 0 
298 1 0.374614 79.5 4.24563 18.0851 0 
84 1 0.417941 79.5 4.85011 18.0246 0 
263 1 0.375892 79.5 5.46342 17.9855 0 
157 1 0.417922 79.5 5.97313 18.008 0 
183 1 0.418934 79.5 6.48359 18.0216 0 
117 1 0.376414 79.5 6.95493 17.9994 0 
42 1 0.418538 79.5 7.46521 17.9323 0 
189 1 0.374207 79.5 7.93625 17.9521 0 
224 1 0.417151 79.5 8.36167 17.9623 0 
202 1 0.416907 79.5 8.81944 17.9549 0 
222 1 0.376423 79.5 9.18376 18.1089 0 
51 1 0.378133 79.5 9.56845 18.0894 0 
151 1 0.377236 79.5 9.95975 18.0598 0 
102 1 0.419434 79.5 10.3903 18.0384 0 
164 1 0.419166 79.5 10.8143 18.0294 0 
233 1 0.376541 79.5 11.2462 18.0457 0 
268 1 0.418081 79.5 11.7041 18.0759 0 
65 1 0.375901 79.5 12.1277 18.1315 0 
31 1 0.376295 79.5 12.7625 17.8098 0 
181 1 0.377496 79.5 12.5355 18.1922 0 
115 1 0.377962 79.5 13.2033 17.8259 0 
208 1 0.376279 79.5 12.9711 18.2052 0 
241 1 0.375449 79.5 13.6519 17.8155 0 
79 1 0.376387 79.5 13.4214 18.2104 0 
274 1 0.37582 79.5 13.9165 18.1496 0 
191 1 0.419678 79.5 14.397 18.0473 0 
286 1 0.417076 79.5 15.0091 18.0109 0 
173 1 0.377039 79.5 15.6656 18.1901 0 
212 1 0.41762 79.5 4.54636 18.5689 0 
4 1 0.418796 79.5 5.20713 18.4164 0 
243 1 0.376024 79.5 5.72982 18.4321 0 
200 1 0.417021 79.5 6.22842 18.4494 0 
217 1 0.420187 79.5 6.71541 18.4522 0 
186 1 0.417704 79.5 7.24975 18.3092 0 
210 1 0.417016 79.5 7.71696 18.3146 0 
201 1 0.37868 79.5 8.15449 18.3341 0 
177 1 0.417786 79.5 8.57855 18.3384 0 
132 1 0.378247 79.5 8.9731 18.4174 0 
287 1 0.378509 79.5 9.3785 18.4457 0 
280 1 0.376116 79.5 9.76272 18.4165 0 
178 1 0.415965 79.5 10.1738 18.3939 0 
22 1 0.376996 79.5 10.6019 18.3948 0 
262 1 0.418034 79.5 11.0156 18.3956 0 
229 1 0.41843 79.5 11.4561 18.412 0 
190 1 0.417687 79.5 11.9294 18.4913 0 
80 1 0.376209 79.5 12.3315 18.5718 0 
255 1 0.419607 79.5 12.7591 18.5944 0 
272 1 0.378957 79.5 13.2062 18.5978 0 
24 1 0.416559 79.5 13.691 18.5726 0 
160 1 0.418475 79.5 14.1921 18.5325 0 
185 1 0.37559 79.5 14.6952 18.4513 0 
107 1 0.375813 79.5 15.2538 18.5303 0 
258 1 0.419432 79.5 4.10304 19.0187 0 
71 1 0.377916 79.5 4.97176 18.8637 0 
260 1 0.417822 79.5 5.47572 18.8717 0 
148 1 0.418606 79.5 5.96331 18.8741 0 
245 1 0.376779 79.5 6.42458 18.8817 0 
166 1 0.418977 79.5 6.82624 19.0185 0 
188 1 0.417316 79.5 7.09211 18.696 0 
163 1 0.376966 79.5 7.32073 19.0606 0 
97 1 0.377275 79.5 7.52524 18.6968 0 
213 1 0.418946 79.5 7.94916 18.7027 0 
75 1 0.376447 79.5 7.74404 19.0683 0 
261 1 0.377169 79.5 8.35846 18.7131 0 
108 1 0.37715 79.5 8.15523 19.0792 0 
59 1 0.419658 79.5 8.757 18.7498 0 
140 1 0.378892 79.5 9.17594 18.7708 0 
68 1 0.37735 79.5 9.57135 18.7767 0 
92 1 0.417624 79.5 9.967 18.7547 0 
276 1 0.417911 79.5 10.1937 19.0983 0 
192 1 0.418338 79.5 10.4035 18.7391 0 
293 1 0.417075 79.5 10.6123 19.0988 0 
216 1 0.376432 79.5 10.806 18.7511 0 
58 1 0.415805 79.5 11.2077 18.7648 0 
127 1 0.417806 79.5 11.6423 18.7912 0 
155 1 0.37768 79.5 12.1322 18.9367 0 
9 1 0.378113 79.5 12.5405 18.9755 0 
29 1 0.417393 79.5 12.9827 19.0061 0 
174 1 0.419338 79.5 13.4536 18.9835 0 
30 1 0.376677 79.5 13.9442 18.9645 0 
3 1 0.376593 79.5 14.4361 18.9297 0 
176 1 0.376448 79.5 14.9131 18.8798 0 
146 1 0.418691 79.5 15.7932 18.8528 0 
169 1 0.378453 79.5 4.64282 19.2303 0 
33 1 0.378072 79.5 5.19979 19.3013 0 
120 1 0.378184 79.5 5.69344 19.319 0 
199 1 0.417759 79.5 6.15475 19.3211 0 
122 1 0.41785 79.5 6.59469 19.394 0 
301 1 0.41979 79.5 7.07049 19.4067 0 
129 1 0.417621 79.5 7.53338 19.4341 0 
184 1 0.417741 79.5 7.96464 19.4471 0 
38 1 0.377736 79.5 8.37032 19.467 0 
218 1 0.418811 79.5 8.55262 19.1148 0 
15 1 0.377305 79.5 8.79595 19.4692 0 
118 1 0.41851 79.5 8.97134 19.1152 0 
87 1 0.377593 79.5 9.18825 19.481 0 
94 1 0.419162 79.5 9.38612 19.1274 0 
12 1 0.37772 79.5 9.57605 19.4742 0 
69 1 0.376926 79.5 9.78198 19.1155 0 
121 1 0.418093 79.5 9.98316 19.4549 0 
47 1 0.418289 79.5 10.4013 19.4547 0 
283 1 0.377483 79.5 11.0065 19.1195 0 
284 1 0.376238 79.5 10.8016 19.4601 0 
230 1 0.376846 79.5 11.3894 19.1165 0 
89 1 0.376485 79.5 11.1776 19.4723 0 
101 1 0.376457 79.5 11.8175 19.1441 0 
209 1 0.419672 79.5 11.5781 19.464 0 
302 1 0.377055 79.5 12.0227 19.4579 0 
221 1 0.419252 79.5 12.4084 19.369 0 
17 1 0.37517 79.5 12.8177 19.4036 0 
266 1 0.376034 79.5 13.2501 19.3921 0 
165 1 0.417616 79.5 13.7142 19.377 0 
282 1 0.416306 79.5 14.2198 19.3553 0 
171 1 0.417726 79.5 14.7415 19.3427 0 
238 1 0.417818 79.5 15.3201 19.1953 0 
50 1 0.378881 79.5 4.29733 19.6502 0 
123 1 0.416947 79.5 4.88497 19.7081 0 
21 1 0.420824 79.5 5.43688 19.7399 0 
135 1 0.377153 79.5 5.92751 19.7535 0 
252 1 0.378093 79.5 6.37123 19.7838 0 
161 1 0.416955 79.5 6.8364 19.7925 0 
194 1 0.416887 79.5 7.30532 19.7958 0 
63 1 0.377654 79.5 7.75259 19.8139 0 
32 1 0.375477 79.5 8.16735 19.8168 0 
145 1 0.419666 79.5 8.58459 19.8029 0 
27 1 0.375782 79.5 8.99731 19.8187 0 
8 1 0.378024 79.5 9.38188 19.8186 0 
296 1 0.418792 79.5 9.77864 19.8123 0 
253 1 0.415824 79.5 10.1947 19.8112 0 
133 1 0.418748 79.5 10.6115 19.8083 0 
285 1 0.37676 79.5 11.007 19.8179 0 
11 1 0.377588 79.5 11.3906 19.8185 0 
26 1 0.417817 79.5 11.8171 19.8032 0 
41 1 0.375472 79.5 12.2306 19.812 0 
220 1 0.375738 79.5 12.6189 19.7908 0 
49 1 0.419815 79.5 13.0495 19.7886 0 
288 1 0.377512 79.5 13.4989 19.7838 0 
45 1 0.41618 79.5 13.9812 19.7729 0 
114 1 0.376368 79.5 14.4956 19.7631 0 
83 1 0.419111 79.5 15.0958 19.7139 0 
267 1 0.418107 79.5 15.7214 19.613 0 
