# LAMMPS data file for rigid bodies

303 atoms

1 atom types

0.0 	 20.0 	 xlo xhi 
0.0 	 20.0 	 ylo yhi 
-1.0 	 1.0 	 zlo zhi 

Atoms

141 1 0.417537 79.5 9.24806 13.4621 0 
248 1 0.417624 79.5 9.90087 13.4682 0 
142 1 0.376502 79.5 10.5316 13.5525 0 
28 1 0.376324 79.5 11.169 13.5459 0 
116 1 0.418074 79.5 7.61973 13.94 0 
78 1 0.376793 79.5 8.25647 13.9064 0 
156 1 0.41736 79.5 8.82279 13.9246 0 
154 1 0.377463 79.5 9.36703 14.0291 0 
290 1 0.417552 79.5 9.89016 14.0409 0 
215 1 0.417318 79.5 10.4206 14.0939 0 
138 1 0.417163 79.5 10.9606 14.0799 0 
5 1 0.417956 79.5 11.5411 14.0424 0 
82 1 0.37548 79.5 12.1006 14.1479 0 
139 1 0.377813 79.5 12.6742 14.2001 0 
187 1 0.376835 79.5 6.8359 14.5254 0 
76 1 0.376361 79.5 7.40796 14.4954 0 
271 1 0.419038 79.5 7.99732 14.426 0 
172 1 0.377906 79.5 8.56154 14.4258 0 
137 1 0.377547 79.5 9.08905 14.4658 0 
235 1 0.417949 79.5 9.60894 14.5177 0 
206 1 0.377502 79.5 10.1224 14.5393 0 
55 1 0.377258 79.5 10.6531 14.5619 0 
77 1 0.416408 79.5 11.1937 14.5693 0 
159 1 0.418141 79.5 11.7319 14.6014 0 
292 1 0.419322 79.5 6.05316 15.0434 0 
211 1 0.376915 79.5 6.64868 15.0539 0 
34 1 0.376733 79.5 7.20584 15.0088 0 
300 1 0.417817 79.5 7.73875 14.9347 0 
227 1 0.419731 79.5 8.2907 14.8935 0 
74 1 0.418792 79.5 8.82946 14.893 0 
37 1 0.376521 79.5 9.35028 14.9379 0 
91 1 0.375891 79.5 9.84712 14.972 0 
225 1 0.418808 79.5 10.3487 14.9718 0 
246 1 0.419558 79.5 10.8857 15.0075 0 
131 1 0.37743 79.5 11.3979 15.0464 0 
104 1 0.417492 79.5 11.9279 15.1012 0 
195 1 0.376076 79.5 12.2824 14.6886 0 
57 1 0.417312 79.5 12.8502 14.7412 0 
95 1 0.378511 79.5 13.4531 14.8572 0 
56 1 0.417661 79.5 6.97595 15.4865 0 
249 1 0.37714 79.5 7.52303 15.4277 0 
231 1 0.418206 79.5 8.03463 15.3658 0 
150 1 0.42017 79.5 8.56357 15.3366 0 
226 1 0.418002 79.5 9.08526 15.3369 0 
14 1 0.378044 79.5 9.58931 15.3613 0 
96 1 0.375974 79.5 10.0697 15.3915 0 
250 1 0.419005 79.5 10.5667 15.4021 0 
270 1 0.377661 79.5 11.0914 15.4456 0 
109 1 0.416555 79.5 11.5931 15.4949 0 
60 1 0.378985 79.5 12.4496 15.1878 0 
16 1 0.418857 79.5 13.0018 15.2705 0 
277 1 0.378085 79.5 13.5765 15.412 0 
61 1 0.416969 79.5 5.74106 15.6207 0 
279 1 0.419009 79.5 6.387 15.5615 0 
180 1 0.4178 79.5 6.75961 15.9726 0 
251 1 0.418401 79.5 7.31317 15.8861 0 
103 1 0.376732 79.5 7.82277 15.8217 0 
36 1 0.41802 79.5 8.31774 15.7759 0 
128 1 0.417636 79.5 8.82981 15.7566 0 
259 1 0.416952 79.5 9.33529 15.7542 0 
93 1 0.375858 79.5 9.8121 15.7685 0 
234 1 0.376567 79.5 10.2865 15.7894 0 
144 1 0.417225 79.5 10.784 15.8111 0 
149 1 0.420339 79.5 11.2846 15.8867 0 
86 1 0.418347 79.5 11.7698 15.9593 0 
81 1 0.377631 79.5 12.0982 15.5795 0 
6 1 0.41784 79.5 12.6076 15.6733 0 
205 1 0.417837 79.5 13.1474 15.7793 0 
256 1 0.417029 79.5 13.7225 15.9476 0 
19 1 0.377048 79.5 14.1605 15.5592 0 
264 1 0.375728 79.5 5.05379 16.3265 0 
147 1 0.378206 79.5 5.61209 16.1887 0 
223 1 0.377582 79.5 6.15679 16.0455 0 
62 1 0.419478 79.5 6.51046 16.4166 0 
85 1 0.378114 79.5 7.11265 16.3284 0 
273 1 0.375407 79.5 7.63182 16.2474 0 
44 1 0.376441 79.5 8.10083 16.1996 0 
196 1 0.417674 79.5 8.58622 16.1716 0 
247 1 0.417974 79.5 9.08334 16.1616 0 
53 1 0.418687 79.5 9.556 16.1702 0 
204 1 0.417908 79.5 10.0217 16.1706 0 
20 1 0.418644 79.5 10.4976 16.1924 0 
72 1 0.418442 79.5 10.9692 16.2365 0 
239 1 0.376202 79.5 11.4523 16.3333 0 
193 1 0.377638 79.5 11.9202 16.3895 0 
295 1 0.376364 79.5 12.2512 16.0293 0 
112 1 0.37724 79.5 12.7523 16.1445 0 
203 1 0.418748 79.5 13.2766 16.2671 0 
236 1 0.417091 79.5 14.3017 16.1617 0 
100 1 0.41738 79.5 5.45205 16.7584 0 
54 1 0.417762 79.5 5.99712 16.5729 0 
162 1 0.417925 79.5 6.87699 16.7356 0 
13 1 0.376492 79.5 7.43705 16.6454 0 
113 1 0.376209 79.5 7.9086 16.6089 0 
48 1 0.417895 79.5 8.36127 16.5849 0 
73 1 0.418056 79.5 8.85128 16.5552 0 
207 1 0.375123 79.5 9.32225 16.554 0 
67 1 0.375259 79.5 9.7701 16.5602 0 
18 1 0.417229 79.5 10.2272 16.5757 0 
275 1 0.375236 79.5 10.6741 16.5993 0 
278 1 0.377425 79.5 11.1231 16.627 0 
289 1 0.377045 79.5 11.6268 16.7351 0 
303 1 0.377701 79.5 12.39 16.4504 0 
291 1 0.418671 79.5 12.0697 16.8181 0 
237 1 0.377021 79.5 12.5248 16.8618 0 
110 1 0.376982 79.5 12.8868 16.5874 0 
35 1 0.375085 79.5 13.3783 16.7283 0 
98 1 0.376685 79.5 13.8131 16.4681 0 
105 1 0.378261 79.5 14.327 16.7411 0 
66 1 0.417743 79.5 14.8583 16.4855 0 
70 1 0.418537 79.5 4.87338 16.9532 0 
7 1 0.376836 79.5 5.38022 17.3057 0 
257 1 0.417584 79.5 5.89139 17.0948 0 
111 1 0.377387 79.5 6.38947 16.9189 0 
124 1 0.377489 79.5 6.75883 17.2044 0 
52 1 0.417492 79.5 7.22904 17.0421 0 
64 1 0.37804 79.5 7.72151 16.9957 0 
170 1 0.419066 79.5 8.15756 17.0197 0 
281 1 0.419313 79.5 8.62567 16.9552 0 
177 1 0.417786 79.5 8.87663 17.3287 0 
197 1 0.418138 79.5 9.09195 16.9351 0 
99 1 0.418162 79.5 9.32404 17.325 0 
202 1 0.416907 79.5 9.53908 16.9362 0 
39 1 0.417739 79.5 9.97683 16.9502 0 
299 1 0.376562 79.5 10.4185 16.963 0 
214 1 0.375802 79.5 10.8394 16.9699 0 
2 1 0.418632 79.5 11.2961 16.9958 0 
153 1 0.418903 79.5 11.7768 17.1966 0 
23 1 0.377532 79.5 12.214 17.2424 0 
269 1 0.377027 79.5 12.6337 17.2616 0 
167 1 0.376423 79.5 12.9933 17.0308 0 
297 1 0.418019 79.5 13.4222 17.1896 0 
126 1 0.377564 79.5 13.8653 16.9545 0 
158 1 0.378408 79.5 14.3325 17.2671 0 
244 1 0.377185 79.5 14.8519 17.0882 0 
90 1 0.418215 79.5 4.81888 17.5481 0 
136 1 0.377551 79.5 5.82504 17.5892 0 
88 1 0.377633 79.5 6.29657 17.3942 0 
25 1 0.418251 79.5 6.68844 17.6683 0 
232 1 0.41966 79.5 7.13207 17.5026 0 
175 1 0.375285 79.5 7.54639 17.3613 0 
152 1 0.419353 79.5 7.96266 17.4533 0 
224 1 0.417151 79.5 8.29304 17.7327 0 
168 1 0.377281 79.5 8.44104 17.3506 0 
143 1 0.378123 79.5 8.70752 17.7141 0 
125 1 0.417497 79.5 9.12142 17.7056 0 
228 1 0.377094 79.5 9.5365 17.7077 0 
134 1 0.377548 79.5 9.73696 17.3351 0 
106 1 0.418321 79.5 9.94142 17.7169 0 
40 1 0.417655 79.5 10.1546 17.3418 0 
46 1 0.377328 79.5 10.3588 17.7269 0 
242 1 0.419369 79.5 10.5727 17.3527 0 
119 1 0.418318 79.5 10.9914 17.3571 0 
233 1 0.376541 79.5 10.7681 17.7304 0 
10 1 0.377297 79.5 11.3983 17.3815 0 
65 1 0.375901 79.5 11.1841 17.7297 0 
164 1 0.419166 79.5 11.6493 17.6881 0 
31 1 0.376295 79.5 12.0509 17.6248 0 
181 1 0.377496 79.5 12.4705 17.6369 0 
240 1 0.417923 79.5 12.9642 17.5454 0 
115 1 0.377962 79.5 13.4069 17.6297 0 
43 1 0.416658 79.5 13.8695 17.4515 0 
130 1 0.41741 79.5 14.7163 17.6449 0 
179 1 0.419049 79.5 15.3259 17.5302 0 
263 1 0.375892 79.5 4.31391 17.8937 0 
265 1 0.4186 79.5 4.82263 18.1642 0 
254 1 0.418928 79.5 5.31643 17.8295 0 
183 1 0.418934 79.5 5.78407 18.078 0 
1 1 0.416656 79.5 6.24304 17.885 0 
157 1 0.417922 79.5 6.6781 18.1344 0 
219 1 0.416465 79.5 7.11885 17.9475 0 
117 1 0.376414 79.5 7.49554 18.1989 0 
294 1 0.420196 79.5 7.57722 17.7802 0 
210 1 0.417016 79.5 7.96732 17.9911 0 
97 1 0.377275 79.5 8.5083 18.0756 0 
222 1 0.376423 79.5 8.91848 18.0714 0 
198 1 0.418579 79.5 9.33831 18.0775 0 
51 1 0.378133 79.5 9.73969 18.0807 0 
280 1 0.376116 79.5 10.1404 18.0756 0 
287 1 0.378509 79.5 10.5539 18.0677 0 
151 1 0.377236 79.5 10.9777 18.0695 0 
268 1 0.418081 79.5 11.4146 18.064 0 
255 1 0.419607 79.5 11.8583 18.0606 0 
80 1 0.376209 79.5 12.2712 18.0051 0 
272 1 0.378957 79.5 12.724 17.9651 0 
274 1 0.37582 79.5 13.1616 17.9742 0 
208 1 0.376279 79.5 13.7147 17.9192 0 
182 1 0.376421 79.5 14.2066 17.8092 0 
286 1 0.417076 79.5 14.5423 18.1845 0 
173 1 0.377039 79.5 15.0721 18.0686 0 
84 1 0.417941 79.5 4.31034 18.5506 0 
4 1 0.418796 79.5 5.3249 18.3747 0 
212 1 0.41762 79.5 5.813 18.5614 0 
243 1 0.376024 79.5 6.2384 18.3661 0 
200 1 0.417021 79.5 6.64316 18.5844 0 
217 1 0.420187 79.5 7.10498 18.3999 0 
188 1 0.417316 79.5 7.53329 18.6468 0 
189 1 0.374207 79.5 7.85136 18.373 0 
201 1 0.37868 79.5 8.26029 18.3607 0 
132 1 0.378247 79.5 8.71664 18.4116 0 
108 1 0.37715 79.5 9.12136 18.4203 0 
261 1 0.377169 79.5 9.53371 18.4373 0 
22 1 0.376996 79.5 9.92095 18.423 0 
262 1 0.418034 79.5 10.3427 18.4167 0 
229 1 0.41843 79.5 10.7747 18.4128 0 
102 1 0.419434 79.5 11.2049 18.4306 0 
101 1 0.376457 79.5 11.6261 18.4279 0 
155 1 0.37768 79.5 12.0634 18.4133 0 
190 1 0.417687 79.5 12.5017 18.3582 0 
9 1 0.378113 79.5 12.9541 18.3386 0 
79 1 0.376387 79.5 13.4593 18.282 0 
17 1 0.37517 79.5 13.7228 18.6353 0 
185 1 0.37559 79.5 13.9822 18.2508 0 
24 1 0.416559 79.5 14.2585 18.6062 0 
241 1 0.375449 79.5 14.8859 18.5878 0 
191 1 0.419678 79.5 15.4712 18.4549 0 
298 1 0.374614 79.5 4.88289 18.7224 0 
120 1 0.378184 79.5 5.35736 18.879 0 
199 1 0.417759 79.5 5.80928 19.0263 0 
148 1 0.418606 79.5 6.25669 18.8777 0 
245 1 0.376779 79.5 6.67767 19.0308 0 
186 1 0.417704 79.5 7.04252 18.8288 0 
163 1 0.376966 79.5 7.38672 19.0258 0 
75 1 0.376447 79.5 7.79901 19.0515 0 
42 1 0.418538 79.5 8.03051 18.7272 0 
184 1 0.417741 79.5 8.25704 19.0915 0 
213 1 0.418946 79.5 8.47779 18.7303 0 
118 1 0.41851 79.5 8.70856 19.1008 0 
140 1 0.378892 79.5 8.91352 18.7598 0 
59 1 0.419658 79.5 9.31694 18.7725 0 
68 1 0.37735 79.5 9.7214 18.7866 0 
92 1 0.417624 79.5 10.1174 18.7673 0 
192 1 0.418338 79.5 10.5624 18.7716 0 
178 1 0.415965 79.5 10.9874 18.789 0 
230 1 0.376846 79.5 11.4066 18.7911 0 
58 1 0.415805 79.5 11.8314 18.773 0 
221 1 0.419252 79.5 12.2903 18.765 0 
29 1 0.417393 79.5 12.7507 18.7313 0 
266 1 0.376034 79.5 12.5298 19.1089 0 
127 1 0.417806 79.5 13.2351 18.6733 0 
45 1 0.41618 79.5 13.0088 19.0869 0 
282 1 0.416306 79.5 13.4872 19.0531 0 
174 1 0.419338 79.5 13.9824 19.0175 0 
160 1 0.418475 79.5 14.5562 18.9737 0 
107 1 0.375813 79.5 15.1852 19.0368 0 
146 1 0.418691 79.5 15.7596 18.993 0 
260 1 0.417822 79.5 4.49597 19.1297 0 
71 1 0.377916 79.5 5.03654 19.2549 0 
169 1 0.378453 79.5 5.53517 19.3767 0 
135 1 0.377153 79.5 6.10234 19.3601 0 
166 1 0.418977 79.5 6.55761 19.4176 0 
301 1 0.41979 79.5 7.04373 19.3346 0 
122 1 0.41785 79.5 7.53699 19.3912 0 
129 1 0.417621 79.5 8.00394 19.4236 0 
218 1 0.418811 79.5 8.47881 19.4485 0 
38 1 0.377736 79.5 8.93094 19.4512 0 
15 1 0.377305 79.5 9.12018 19.1229 0 
27 1 0.375782 79.5 9.31933 19.4764 0 
94 1 0.419162 79.5 9.52281 19.1367 0 
12 1 0.37772 79.5 9.73384 19.4718 0 
69 1 0.376926 79.5 9.92577 19.13 0 
121 1 0.418093 79.5 10.1284 19.4742 0 
276 1 0.417911 79.5 10.3362 19.1169 0 
293 1 0.417075 79.5 10.5647 19.4568 0 
216 1 0.376432 79.5 10.7708 19.1206 0 
284 1 0.376238 79.5 10.9803 19.4545 0 
283 1 0.377483 79.5 11.1901 19.1347 0 
89 1 0.376485 79.5 11.4034 19.4608 0 
41 1 0.375472 79.5 11.6063 19.1281 0 
302 1 0.377055 79.5 11.8113 19.4697 0 
26 1 0.417817 79.5 12.0497 19.1332 0 
165 1 0.417616 79.5 12.3037 19.4643 0 
49 1 0.419815 79.5 12.7697 19.4642 0 
288 1 0.377512 79.5 13.2456 19.4543 0 
3 1 0.376593 79.5 13.7221 19.4246 0 
30 1 0.376677 79.5 14.256 19.3769 0 
176 1 0.376448 79.5 14.8065 19.3612 0 
258 1 0.419432 79.5 4.13262 19.5963 0 
50 1 0.378881 79.5 4.71961 19.6812 0 
123 1 0.416947 79.5 5.24724 19.7422 0 
33 1 0.378072 79.5 5.79382 19.7531 0 
21 1 0.420824 79.5 6.26806 19.7835 0 
252 1 0.378093 79.5 6.74396 19.7992 0 
161 1 0.416955 79.5 7.15976 19.767 0 
194 1 0.416887 79.5 7.57751 19.8002 0 
63 1 0.377654 79.5 7.97205 19.8166 0 
32 1 0.375477 79.5 8.34548 19.8186 0 
145 1 0.419666 79.5 8.74156 19.7991 0 
87 1 0.377593 79.5 9.13832 19.8172 0 
296 1 0.418792 79.5 9.53477 19.8091 0 
8 1 0.378024 79.5 9.9388 19.8224 0 
253 1 0.415824 79.5 10.3588 19.8136 0 
133 1 0.418748 79.5 10.7824 19.806 0 
47 1 0.418289 79.5 11.1997 19.8005 0 
285 1 0.37676 79.5 11.6132 19.816 0 
209 1 0.419672 79.5 12.0504 19.7979 0 
11 1 0.377588 79.5 12.5229 19.8154 0 
220 1 0.375738 79.5 13.0021 19.8132 0 
114 1 0.376368 79.5 13.482 19.8007 0 
83 1 0.419111 79.5 13.997 19.772 0 
171 1 0.417726 79.5 14.5393 19.7553 0 
267 1 0.418107 79.5 15.159 19.6939 0 
238 1 0.417818 79.5 15.7138 19.5954 0 
