# LAMMPS data file for rigid bodies

303 atoms

1 atom types

0.0 	 20.0 	 xlo xhi 
0.0 	 20.0 	 ylo yhi 
-1.0 	 1.0 	 zlo zhi 

Atoms

141 1 0.417537 79.5 9.12714 13.6072 0 
248 1 0.417624 79.5 9.94255 13.6713 0 
142 1 0.376502 79.5 10.5386 13.477 0 
116 1 0.418074 79.5 7.94633 13.8389 0 
156 1 0.41736 79.5 8.56281 13.9267 0 
154 1 0.377463 79.5 9.50004 14.0323 0 
138 1 0.417163 79.5 10.5001 14.0419 0 
159 1 0.418141 79.5 11.1115 13.7841 0 
82 1 0.37548 79.5 11.508 14.2193 0 
5 1 0.417956 79.5 12.0684 14.0252 0 
187 1 0.376835 79.5 7.39452 14.2547 0 
78 1 0.376793 79.5 7.96795 14.4049 0 
271 1 0.419038 79.5 8.51345 14.5162 0 
137 1 0.377547 79.5 9.02144 14.2631 0 
235 1 0.417949 79.5 9.49996 14.562 0 
290 1 0.417552 79.5 9.99049 14.2878 0 
215 1 0.417318 79.5 10.451 14.5994 0 
77 1 0.416408 79.5 10.9655 14.3749 0 
28 1 0.376324 79.5 11.8921 14.6161 0 
95 1 0.378511 79.5 12.4049 14.5388 0 
139 1 0.377813 79.5 12.9363 14.3797 0 
292 1 0.419322 79.5 5.95696 15.0853 0 
211 1 0.376915 79.5 6.92043 14.6822 0 
56 1 0.417661 79.5 7.48905 14.8182 0 
300 1 0.417817 79.5 8.03761 14.916 0 
227 1 0.419731 79.5 8.55857 15.048 0 
172 1 0.377906 79.5 9.01864 14.7687 0 
37 1 0.376521 79.5 9.5 15.0523 0 
206 1 0.377502 79.5 9.96425 14.8155 0 
246 1 0.419558 79.5 10.8822 14.9205 0 
104 1 0.417492 79.5 11.3779 14.7598 0 
195 1 0.376076 79.5 12.2791 15.0589 0 
277 1 0.378085 79.5 12.7955 14.9554 0 
19 1 0.377048 79.5 13.3716 14.8073 0 
34 1 0.376733 79.5 6.55453 15.1251 0 
76 1 0.376361 79.5 7.0962 15.2413 0 
103 1 0.376732 79.5 7.61616 15.3279 0 
150 1 0.42017 79.5 8.11947 15.4166 0 
226 1 0.418002 79.5 8.61132 15.5487 0 
74 1 0.418792 79.5 9.0517 15.2498 0 
55 1 0.377258 79.5 9.5 15.5202 0 
250 1 0.419005 79.5 9.93239 15.301 0 
225 1 0.418808 79.5 10.398 15.1164 0 
109 1 0.416555 79.5 10.8065 15.4236 0 
131 1 0.37743 79.5 11.2732 15.2734 0 
6 1 0.41784 79.5 11.7749 15.1228 0 
81 1 0.377631 79.5 12.1429 15.5363 0 
60 1 0.378985 79.5 12.6351 15.455 0 
205 1 0.417837 79.5 13.1885 15.3507 0 
236 1 0.417091 79.5 13.8048 15.2498 0 
257 1 0.417584 79.5 5.33304 15.8527 0 
61 1 0.416969 79.5 6.11155 15.6584 0 
279 1 0.419009 79.5 6.68481 15.6555 0 
249 1 0.37714 79.5 7.25146 15.7173 0 
62 1 0.419478 79.5 7.741 15.812 0 
36 1 0.41802 79.5 8.22607 15.9008 0 
231 1 0.418206 79.5 9.07391 15.7269 0 
91 1 0.375891 79.5 9.50002 15.9695 0 
96 1 0.375974 79.5 9.90844 15.763 0 
149 1 0.420339 79.5 10.3446 15.6221 0 
270 1 0.377661 79.5 10.7261 15.8869 0 
239 1 0.376202 79.5 11.1713 15.7454 0 
86 1 0.418347 79.5 11.6508 15.6023 0 
193 1 0.377638 79.5 12.0105 15.9839 0 
295 1 0.376364 79.5 12.483 15.9218 0 
57 1 0.417312 79.5 12.9876 15.8509 0 
98 1 0.376685 79.5 13.5441 15.7714 0 
16 1 0.418857 79.5 14.2079 15.716 0 
264 1 0.375728 79.5 5.81913 16.1359 0 
180 1 0.4178 79.5 6.35074 16.1822 0 
251 1 0.418401 79.5 6.93161 16.1087 0 
273 1 0.375407 79.5 7.41746 16.1965 0 
85 1 0.378114 79.5 7.86213 16.2846 0 
52 1 0.417492 79.5 8.30196 16.3638 0 
113 1 0.376209 79.5 8.68214 16.0154 0 
128 1 0.417636 79.5 9.13072 16.1839 0 
14 1 0.378044 79.5 9.85837 16.1815 0 
144 1 0.417225 79.5 10.2825 16.1146 0 
278 1 0.377425 79.5 10.6581 16.3111 0 
72 1 0.418442 79.5 11.0784 16.2096 0 
20 1 0.418644 79.5 11.5398 16.0609 0 
303 1 0.377701 79.5 11.8608 16.4124 0 
110 1 0.376982 79.5 12.3216 16.3524 0 
112 1 0.37724 79.5 12.8005 16.3177 0 
203 1 0.418748 79.5 13.3203 16.259 0 
256 1 0.417029 79.5 13.8692 16.1984 0 
66 1 0.417743 79.5 14.51 16.2555 0 
7 1 0.376836 79.5 5.3664 16.4977 0 
100 1 0.41738 79.5 5.92845 16.6445 0 
223 1 0.377582 79.5 6.38095 16.8438 0 
147 1 0.378206 79.5 6.69411 16.5249 0 
111 1 0.377387 79.5 7.15144 16.5835 0 
13 1 0.376492 79.5 7.58577 16.656 0 
44 1 0.376441 79.5 8.00597 16.7366 0 
281 1 0.419313 79.5 8.4347 16.8194 0 
247 1 0.417974 79.5 8.74557 16.4562 0 
93 1 0.375858 79.5 9.1679 16.6008 0 
259 1 0.416952 79.5 9.56361 16.4854 0 
234 1 0.376567 79.5 10.0378 16.5473 0 
275 1 0.375236 79.5 10.4465 16.6456 0 
18 1 0.417229 79.5 10.903 16.6793 0 
289 1 0.377045 79.5 11.4102 16.4914 0 
214 1 0.375802 79.5 11.2749 16.8683 0 
2 1 0.418632 79.5 11.7086 16.8428 0 
291 1 0.418671 79.5 12.1555 16.7856 0 
35 1 0.375085 79.5 12.6087 16.7326 0 
126 1 0.377564 79.5 13.1056 16.7064 0 
105 1 0.378261 79.5 13.5974 16.6917 0 
244 1 0.377185 79.5 14.1077 16.6552 0 
179 1 0.419049 79.5 14.8598 16.7461 0 
70 1 0.418537 79.5 4.9216 16.9116 0 
254 1 0.418928 79.5 5.51214 17.0508 0 
54 1 0.417762 79.5 6.03174 17.1918 0 
1 1 0.416656 79.5 6.5388 17.3115 0 
124 1 0.377489 79.5 6.86464 16.9584 0 
88 1 0.377633 79.5 7.31456 17.0284 0 
175 1 0.375285 79.5 7.7438 17.0929 0 
64 1 0.37804 79.5 8.17309 17.1666 0 
196 1 0.417674 79.5 8.86924 16.8983 0 
67 1 0.375259 79.5 8.60454 17.2458 0 
48 1 0.417895 79.5 9.0414 17.2885 0 
207 1 0.375123 79.5 9.32406 16.9586 0 
73 1 0.418056 79.5 9.73407 16.9065 0 
99 1 0.418162 79.5 9.49998 17.3311 0 
53 1 0.418687 79.5 10.1654 16.9585 0 
134 1 0.377548 79.5 9.90838 17.32 0 
299 1 0.376562 79.5 10.622 17.0351 0 
119 1 0.418318 79.5 11.0111 17.1806 0 
153 1 0.418903 79.5 11.4824 17.2472 0 
269 1 0.377027 79.5 11.938 17.2254 0 
237 1 0.377021 79.5 12.3813 17.1625 0 
43 1 0.416658 79.5 12.8688 17.1029 0 
167 1 0.376423 79.5 13.3886 17.1274 0 
158 1 0.378408 79.5 13.8722 17.1148 0 
182 1 0.376421 79.5 14.3935 17.048 0 
130 1 0.41741 79.5 15.2476 17.2207 0 
90 1 0.418215 79.5 4.55857 17.4514 0 
183 1 0.418934 79.5 5.1665 17.5012 0 
219 1 0.416465 79.5 5.71817 17.5944 0 
232 1 0.41966 79.5 6.23209 17.686 0 
294 1 0.420196 79.5 7.01827 17.4031 0 
189 1 0.374207 79.5 6.72987 17.765 0 
136 1 0.377551 79.5 7.46341 17.4572 0 
197 1 0.418138 79.5 7.89904 17.5145 0 
170 1 0.419066 79.5 8.34472 17.5791 0 
168 1 0.377281 79.5 8.77597 17.6385 0 
202 1 0.416907 79.5 9.19875 17.6746 0 
143 1 0.378123 79.5 9.61801 17.7205 0 
228 1 0.377094 79.5 10.003 17.6965 0 
204 1 0.417908 79.5 10.3388 17.3398 0 
125 1 0.417497 79.5 10.4089 17.748 0 
39 1 0.417739 79.5 10.7632 17.525 0 
40 1 0.417655 79.5 11.2092 17.593 0 
106 1 0.418321 79.5 11.7052 17.622 0 
10 1 0.377297 79.5 12.1741 17.5697 0 
242 1 0.419369 79.5 12.6383 17.5172 0 
115 1 0.377962 79.5 13.1235 17.4785 0 
297 1 0.418019 79.5 13.6894 17.5758 0 
240 1 0.417923 79.5 14.1961 17.531 0 
241 1 0.375449 79.5 14.718 17.4321 0 
286 1 0.417076 79.5 15.6518 17.7226 0 
263 1 0.375892 79.5 4.2675 18.058 0 
25 1 0.418251 79.5 4.85341 17.996 0 
157 1 0.417922 79.5 5.43093 18.0129 0 
243 1 0.376024 79.5 5.95521 18.077 0 
217 1 0.420187 79.5 6.44713 18.1341 0 
42 1 0.418538 79.5 6.92348 18.1964 0 
117 1 0.376414 79.5 7.18745 17.8299 0 
162 1 0.417925 79.5 7.62566 17.8819 0 
152 1 0.419353 79.5 8.07421 17.9416 0 
224 1 0.417151 79.5 8.51863 17.9858 0 
222 1 0.376423 79.5 8.92963 18.0245 0 
213 1 0.418946 79.5 9.33941 18.0661 0 
280 1 0.376116 79.5 9.73699 18.0866 0 
51 1 0.378133 79.5 10.1128 18.0694 0 
151 1 0.377236 79.5 10.5057 18.1265 0 
198 1 0.418579 79.5 10.8653 17.9595 0 
102 1 0.419434 79.5 11.2812 18.0041 0 
233 1 0.376541 79.5 11.6785 18.0219 0 
65 1 0.375901 79.5 12.0597 17.9626 0 
80 1 0.376209 79.5 12.4649 17.9209 0 
23 1 0.377532 79.5 12.9017 17.8772 0 
208 1 0.376279 79.5 13.3339 17.8455 0 
274 1 0.37582 79.5 13.6311 18.146 0 
185 1 0.37559 79.5 14.0499 18.0048 0 
79 1 0.376387 79.5 14.5348 17.9344 0 
107 1 0.375813 79.5 15.059 17.823 0 
265 1 0.4186 79.5 4.55613 18.5649 0 
4 1 0.418796 79.5 5.15496 18.4566 0 
260 1 0.417822 79.5 5.69541 18.4789 0 
148 1 0.418606 79.5 6.19626 18.5356 0 
200 1 0.417021 79.5 6.67479 18.5881 0 
186 1 0.417704 79.5 7.37831 18.2614 0 
166 1 0.418977 79.5 7.14509 18.6403 0 
210 1 0.417016 79.5 7.81844 18.3086 0 
177 1 0.417786 79.5 8.26636 18.3483 0 
201 1 0.37868 79.5 8.68579 18.372 0 
108 1 0.37715 79.5 9.083 18.3959 0 
140 1 0.378892 79.5 9.48893 18.4343 0 
287 1 0.378509 79.5 9.86689 18.4439 0 
262 1 0.418034 79.5 10.2629 18.4378 0 
22 1 0.376996 79.5 11.0824 18.3747 0 
155 1 0.37768 79.5 10.7116 18.4358 0 
268 1 0.418081 79.5 11.4905 18.3901 0 
181 1 0.377496 79.5 11.9027 18.3675 0 
46 1 0.377328 79.5 12.3045 18.3166 0 
164 1 0.419166 79.5 12.7376 18.2835 0 
31 1 0.376295 79.5 13.1748 18.2483 0 
272 1 0.378957 79.5 13.0076 18.6596 0 
29 1 0.417393 79.5 13.4561 18.5937 0 
24 1 0.416559 79.5 13.9306 18.5044 0 
17 1 0.37517 79.5 14.3908 18.4093 0 
191 1 0.419678 79.5 14.8983 18.3401 0 
173 1 0.377039 79.5 15.4321 18.2649 0 
160 1 0.418475 79.5 15.8704 18.6614 0 
84 1 0.417941 79.5 4.09763 18.9912 0 
298 1 0.374614 79.5 4.95978 18.915 0 
212 1 0.41762 79.5 5.46122 18.9191 0 
199 1 0.417759 79.5 5.96124 18.9443 0 
245 1 0.376779 79.5 6.44766 18.9767 0 
122 1 0.41785 79.5 6.90572 19.017 0 
163 1 0.376966 79.5 7.37048 19.0393 0 
75 1 0.376447 79.5 7.58508 18.6819 0 
63 1 0.377654 79.5 7.79187 19.0688 0 
188 1 0.417316 79.5 8.01241 18.7066 0 
129 1 0.417621 79.5 8.22235 19.0844 0 
132 1 0.378247 79.5 8.44228 18.7301 0 
97 1 0.377275 79.5 8.64787 19.0987 0 
59 1 0.419658 79.5 8.84413 18.7484 0 
92 1 0.417624 79.5 9.26049 18.7609 0 
261 1 0.377169 79.5 9.66084 18.7807 0 
68 1 0.37735 79.5 10.0614 18.7807 0 
192 1 0.418338 79.5 10.5 18.7749 0 
58 1 0.415805 79.5 10.9145 18.7757 0 
178 1 0.415965 79.5 11.3247 18.7713 0 
9 1 0.378113 79.5 11.7212 18.7529 0 
229 1 0.41843 79.5 11.9294 19.109 0 
190 1 0.417687 79.5 12.1335 18.7191 0 
266 1 0.376034 79.5 12.3539 19.0871 0 
255 1 0.419607 79.5 12.5627 18.6924 0 
127 1 0.417806 79.5 12.8082 19.0584 0 
101 1 0.376457 79.5 13.2641 19.0206 0 
165 1 0.417616 79.5 13.7256 18.9753 0 
221 1 0.419252 79.5 14.2197 18.9051 0 
174 1 0.419338 79.5 14.7209 18.8364 0 
176 1 0.376448 79.5 15.2759 18.7918 0 
258 1 0.419432 79.5 4.62128 19.2779 0 
169 1 0.378453 79.5 5.20779 19.3475 0 
71 1 0.377916 79.5 5.70934 19.3542 0 
21 1 0.420824 79.5 6.20903 19.363 0 
135 1 0.377153 79.5 6.67837 19.3928 0 
301 1 0.41979 79.5 7.14201 19.4121 0 
218 1 0.418811 79.5 7.58666 19.4385 0 
15 1 0.377305 79.5 8.00775 19.4426 0 
184 1 0.417741 79.5 8.44434 19.4461 0 
118 1 0.41851 79.5 8.86127 19.4705 0 
69 1 0.376926 79.5 9.04466 19.1183 0 
12 1 0.37772 79.5 9.25868 19.4885 0 
296 1 0.418792 79.5 9.44089 19.1353 0 
293 1 0.417075 79.5 9.65767 19.4906 0 
94 1 0.419162 79.5 9.85644 19.1244 0 
121 1 0.418093 79.5 10.0713 19.4798 0 
276 1 0.417911 79.5 10.2718 19.1162 0 
47 1 0.418289 79.5 10.5001 19.4566 0 
216 1 0.376432 79.5 10.7045 19.1189 0 
284 1 0.376238 79.5 10.9076 19.4602 0 
230 1 0.376846 79.5 11.105 19.1322 0 
41 1 0.375472 79.5 11.5047 19.1276 0 
283 1 0.377483 79.5 11.297 19.4758 0 
209 1 0.419672 79.5 11.7139 19.4763 0 
302 1 0.377055 79.5 12.1459 19.4671 0 
49 1 0.419815 79.5 12.5764 19.4412 0 
45 1 0.41618 79.5 13.0644 19.4223 0 
288 1 0.377512 79.5 13.5144 19.4008 0 
282 1 0.416306 79.5 13.9925 19.3641 0 
30 1 0.376677 79.5 14.4959 19.3118 0 
238 1 0.417818 79.5 15.041 19.2593 0 
146 1 0.418691 79.5 15.7162 19.2628 0 
120 1 0.378184 79.5 4.26264 19.669 0 
50 1 0.378881 79.5 4.9084 19.7305 0 
33 1 0.378072 79.5 5.4502 19.7567 0 
123 1 0.416947 79.5 5.94906 19.7661 0 
161 1 0.416955 79.5 6.44498 19.7796 0 
194 1 0.416887 79.5 6.91772 19.7921 0 
252 1 0.378093 79.5 7.37305 19.8114 0 
32 1 0.375477 79.5 7.80163 19.8137 0 
145 1 0.419666 79.5 8.2244 19.7995 0 
38 1 0.377736 79.5 8.65513 19.8177 0 
87 1 0.377593 79.5 9.06413 19.8201 0 
8 1 0.378024 79.5 9.45789 19.8262 0 
27 1 0.375782 79.5 9.87203 19.8245 0 
253 1 0.415824 79.5 10.2993 19.8168 0 
133 1 0.418748 79.5 10.7165 19.8074 0 
285 1 0.37676 79.5 11.1131 19.8174 0 
89 1 0.376485 79.5 11.5062 19.8188 0 
11 1 0.377588 79.5 11.9318 19.8168 0 
220 1 0.375738 79.5 12.3567 19.8148 0 
26 1 0.417817 79.5 12.8198 19.7954 0 
114 1 0.376368 79.5 13.2911 19.7994 0 
3 1 0.376593 79.5 13.7495 19.7798 0 
171 1 0.417726 79.5 14.2555 19.7574 0 
83 1 0.419111 79.5 14.782 19.724 0 
267 1 0.418107 79.5 15.3587 19.6961 0 
