# LAMMPS data file for rigid bodies

303 atoms

1 atom types

0.0 	 20.0 	 xlo xhi 
0.0 	 20.0 	 ylo yhi 
-1.0 	 1.0 	 zlo zhi 

Atoms

141 1 0.417537 79.5 8.28108 13.6543 0 
154 1 0.377463 79.5 8.91663 13.7589 0 
248 1 0.417624 79.5 9.84314 13.493 0 
28 1 0.376324 79.5 10.4994 13.4807 0 
116 1 0.418074 79.5 7.2541 14.1205 0 
78 1 0.376793 79.5 7.89409 14.1495 0 
156 1 0.41736 79.5 8.5116 14.2048 0 
137 1 0.377547 79.5 9.43582 13.9224 0 
142 1 0.376502 79.5 9.9588 14.0677 0 
138 1 0.417163 79.5 10.4795 14.0423 0 
5 1 0.417956 79.5 11.0314 13.8415 0 
139 1 0.377813 79.5 11.6412 13.8099 0 
95 1 0.378511 79.5 12.4488 14.1692 0 
187 1 0.376835 79.5 6.90442 14.6629 0 
271 1 0.419038 79.5 7.53835 14.6411 0 
300 1 0.417817 79.5 8.1299 14.6517 0 
172 1 0.377906 79.5 9.0687 14.3294 0 
290 1 0.417552 79.5 9.60513 14.4497 0 
215 1 0.417318 79.5 10.1983 14.556 0 
77 1 0.416408 79.5 10.7901 14.4634 0 
159 1 0.418141 79.5 11.3331 14.3476 0 
82 1 0.37548 79.5 11.8962 14.3053 0 
60 1 0.378985 79.5 12.8331 14.6212 0 
76 1 0.376361 79.5 7.24178 15.1106 0 
235 1 0.417949 79.5 8.69058 14.718 0 
37 1 0.376521 79.5 9.21905 14.8164 0 
206 1 0.377502 79.5 9.71351 14.9211 0 
55 1 0.377258 79.5 10.1586 15.0434 0 
246 1 0.419558 79.5 10.6303 14.9512 0 
131 1 0.37743 79.5 11.1517 14.8527 0 
81 1 0.377631 79.5 11.6778 14.7803 0 
195 1 0.376076 79.5 12.2411 14.7163 0 
277 1 0.378085 79.5 13.6917 15.0577 0 
292 1 0.419322 79.5 5.99962 15.1729 0 
34 1 0.376733 79.5 6.64645 15.1585 0 
227 1 0.419731 79.5 7.80856 15.1168 0 
231 1 0.418206 79.5 8.341 15.1423 0 
74 1 0.418792 79.5 8.87152 15.1931 0 
250 1 0.419005 79.5 9.38084 15.2859 0 
96 1 0.375974 79.5 9.85903 15.38 0 
225 1 0.418808 79.5 10.4238 15.4321 0 
270 1 0.377661 79.5 10.9686 15.3015 0 
109 1 0.416555 79.5 11.4774 15.2422 0 
86 1 0.418347 79.5 12.0119 15.1911 0 
6 1 0.41784 79.5 12.5628 15.1491 0 
104 1 0.417492 79.5 13.1227 15.1118 0 
211 1 0.376915 79.5 5.72979 15.8194 0 
56 1 0.417661 79.5 6.35333 15.6418 0 
249 1 0.37714 79.5 6.99324 15.5602 0 
251 1 0.418401 79.5 6.75428 15.9984 0 
62 1 0.419478 79.5 7.52163 15.5588 0 
147 1 0.378206 79.5 7.27621 15.9983 0 
273 1 0.375407 79.5 7.76532 15.9855 0 
103 1 0.376732 79.5 8.0399 15.5737 0 
36 1 0.41802 79.5 8.26251 15.9988 0 
150 1 0.42017 79.5 8.54764 15.5987 0 
226 1 0.418002 79.5 9.0411 15.6561 0 
91 1 0.375891 79.5 9.52208 15.7357 0 
259 1 0.416952 79.5 9.98903 15.7967 0 
14 1 0.378044 79.5 10.4133 15.8854 0 
144 1 0.417225 79.5 10.8407 15.7345 0 
239 1 0.376202 79.5 11.3114 15.6806 0 
193 1 0.377638 79.5 11.8004 15.6372 0 
303 1 0.377701 79.5 12.3127 15.6112 0 
110 1 0.376982 79.5 12.8204 15.6128 0 
57 1 0.417312 79.5 13.3626 15.6221 0 
16 1 0.418857 79.5 13.934 15.6094 0 
19 1 0.377048 79.5 14.5111 15.7236 0 
279 1 0.419009 79.5 5.1923 16.205 0 
61 1 0.416969 79.5 6.16619 16.1712 0 
111 1 0.377387 79.5 7.04827 16.4232 0 
85 1 0.378114 79.5 7.51532 16.4082 0 
52 1 0.417492 79.5 7.98807 16.3961 0 
113 1 0.376209 79.5 8.73972 16.0392 0 
44 1 0.376441 79.5 8.45672 16.421 0 
128 1 0.417636 79.5 9.21667 16.0874 0 
73 1 0.418056 79.5 9.69818 16.1671 0 
93 1 0.375858 79.5 10.1685 16.2336 0 
234 1 0.376567 79.5 10.6927 16.1852 0 
149 1 0.420339 79.5 11.1396 16.1205 0 
18 1 0.417229 79.5 11.602 16.0669 0 
72 1 0.418442 79.5 12.0943 16.039 0 
289 1 0.377045 79.5 12.5794 16.0449 0 
295 1 0.376364 79.5 13.0695 16.0562 0 
112 1 0.37724 79.5 13.6281 16.1028 0 
205 1 0.417837 79.5 14.1548 16.1928 0 
236 1 0.417091 79.5 14.8135 16.2838 0 
264 1 0.375728 79.5 5.15343 16.827 0 
180 1 0.4178 79.5 5.71307 16.4834 0 
54 1 0.417762 79.5 6.21534 16.7692 0 
223 1 0.377582 79.5 6.57825 16.4537 0 
88 1 0.377633 79.5 6.78605 16.8548 0 
124 1 0.377489 79.5 7.26446 16.8182 0 
13 1 0.376492 79.5 7.74784 16.794 0 
196 1 0.417674 79.5 8.20965 16.8113 0 
281 1 0.419313 79.5 8.65564 16.85 0 
247 1 0.417974 79.5 8.8979 16.4609 0 
48 1 0.417895 79.5 9.33716 16.5221 0 
67 1 0.375259 79.5 9.74598 16.5895 0 
134 1 0.377548 79.5 10.1253 16.6302 0 
53 1 0.418687 79.5 10.532 16.5692 0 
20 1 0.418644 79.5 10.9787 16.558 0 
207 1 0.375123 79.5 11.4099 16.5135 0 
153 1 0.418903 79.5 11.8555 16.4676 0 
278 1 0.377425 79.5 12.3343 16.4582 0 
2 1 0.418632 79.5 12.0787 16.8642 0 
35 1 0.375085 79.5 12.8018 16.4684 0 
237 1 0.377021 79.5 12.5379 16.8648 0 
203 1 0.418748 79.5 13.3205 16.4847 0 
98 1 0.376685 79.5 13.8648 16.6544 0 
256 1 0.417029 79.5 14.4099 16.7027 0 
66 1 0.417743 79.5 15.1495 16.845 0 
257 1 0.417584 79.5 4.69796 17.2535 0 
100 1 0.41738 79.5 5.67106 17.0269 0 
7 1 0.376836 79.5 6.12963 17.2341 0 
136 1 0.377551 79.5 6.5825 17.2585 0 
175 1 0.375285 79.5 7.03682 17.2361 0 
170 1 0.419066 79.5 7.52902 17.1799 0 
162 1 0.417925 79.5 7.99369 17.2047 0 
64 1 0.37804 79.5 8.43637 17.2337 0 
202 1 0.416907 79.5 8.86392 17.2682 0 
168 1 0.377281 79.5 9.08435 16.8958 0 
177 1 0.417786 79.5 9.29082 17.325 0 
99 1 0.418162 79.5 9.5 16.9524 0 
204 1 0.417908 79.5 9.92065 17.0069 0 
39 1 0.417739 79.5 10.3608 16.9883 0 
275 1 0.375236 79.5 10.7823 16.9551 0 
46 1 0.377328 79.5 10.9863 17.3125 0 
214 1 0.375802 79.5 11.2032 16.9339 0 
299 1 0.376562 79.5 11.4068 17.2946 0 
10 1 0.377297 79.5 11.6202 16.8892 0 
242 1 0.419369 79.5 11.8357 17.2733 0 
23 1 0.377532 79.5 12.2816 17.2544 0 
269 1 0.377027 79.5 12.735 17.2627 0 
291 1 0.418671 79.5 13.016 16.8974 0 
126 1 0.377564 79.5 13.4937 16.9341 0 
105 1 0.378261 79.5 14.1347 17.1516 0 
244 1 0.377185 79.5 14.6807 17.1646 0 
70 1 0.418537 79.5 5.26922 17.4227 0 
254 1 0.418928 79.5 5.78436 17.5807 0 
1 1 0.416656 79.5 6.31288 17.6767 0 
25 1 0.418251 79.5 6.80246 17.6911 0 
294 1 0.420196 79.5 7.31772 17.5751 0 
152 1 0.419353 79.5 7.77654 17.6024 0 
197 1 0.418138 79.5 8.23129 17.6119 0 
224 1 0.417151 79.5 8.65986 17.6516 0 
125 1 0.417497 79.5 9.08359 17.6959 0 
143 1 0.378123 79.5 9.70166 17.3707 0 
228 1 0.377094 79.5 9.5 17.7218 0 
40 1 0.417655 79.5 10.1326 17.3831 0 
280 1 0.376116 79.5 9.90312 17.7244 0 
106 1 0.418321 79.5 10.571 17.3562 0 
287 1 0.378509 79.5 10.3457 17.7303 0 
151 1 0.377236 79.5 10.7595 17.7072 0 
119 1 0.418318 79.5 11.1872 17.6732 0 
181 1 0.377496 79.5 11.6105 17.6693 0 
80 1 0.376209 79.5 12.029 17.6547 0 
240 1 0.417923 79.5 12.4703 17.6373 0 
167 1 0.376423 79.5 13.2222 17.3387 0 
115 1 0.377962 79.5 12.9331 17.6488 0 
43 1 0.416658 79.5 13.699 17.3393 0 
286 1 0.417076 79.5 13.9832 17.7275 0 
182 1 0.376421 79.5 14.4494 17.5908 0 
158 1 0.378408 79.5 15.1341 17.4761 0 
265 1 0.4186 79.5 4.32168 17.8227 0 
90 1 0.418215 79.5 4.9284 17.8701 0 
263 1 0.375892 79.5 5.47456 17.9715 0 
219 1 0.416465 79.5 5.99293 18.0564 0 
232 1 0.41966 79.5 6.50951 18.1213 0 
157 1 0.417922 79.5 7.1647 17.9715 0 
117 1 0.376414 79.5 7.60429 17.9947 0 
210 1 0.417016 79.5 8.03763 17.9982 0 
222 1 0.376423 79.5 8.47294 18.0189 0 
201 1 0.37868 79.5 8.87816 18.0544 0 
132 1 0.378247 79.5 9.29129 18.0644 0 
51 1 0.378133 79.5 9.69777 18.0748 0 
262 1 0.418034 79.5 10.1096 18.0648 0 
22 1 0.376996 79.5 10.5449 18.0633 0 
198 1 0.418579 79.5 10.9667 18.0512 0 
233 1 0.376541 79.5 11.3926 18.0411 0 
65 1 0.375901 79.5 11.8032 18.0325 0 
164 1 0.419166 79.5 12.2225 18.04 0 
255 1 0.419607 79.5 12.67 18.0359 0 
185 1 0.37559 79.5 13.1093 18.0229 0 
297 1 0.418019 79.5 13.4752 17.783 0 
274 1 0.37582 79.5 13.7941 18.1718 0 
241 1 0.375449 79.5 14.306 18.0857 0 
130 1 0.41741 79.5 14.8356 17.9392 0 
179 1 0.419049 79.5 15.5396 17.9261 0 
120 1 0.378184 79.5 4.57984 18.3598 0 
258 1 0.419432 79.5 5.15933 18.3827 0 
4 1 0.418796 79.5 5.68107 18.4543 0 
183 1 0.418934 79.5 6.19108 18.5135 0 
260 1 0.417822 79.5 6.64613 18.6433 0 
217 1 0.420187 79.5 6.92605 18.316 0 
243 1 0.376024 79.5 7.3945 18.3543 0 
189 1 0.374207 79.5 7.82782 18.3669 0 
188 1 0.417316 79.5 8.26638 18.3775 0 
97 1 0.377275 79.5 8.68023 18.3979 0 
108 1 0.37715 79.5 9.08937 18.404 0 
213 1 0.418946 79.5 9.5 18.4234 0 
68 1 0.37735 79.5 9.90964 18.4264 0 
178 1 0.415965 79.5 10.3368 18.4117 0 
58 1 0.415805 79.5 10.7548 18.4222 0 
102 1 0.419434 79.5 11.1765 18.4156 0 
268 1 0.418081 79.5 11.6087 18.4041 0 
9 1 0.378113 79.5 12.0243 18.4201 0 
272 1 0.378957 79.5 12.4478 18.4188 0 
208 1 0.376279 79.5 12.9009 18.3989 0 
31 1 0.376295 79.5 13.3815 18.3239 0 
79 1 0.376387 79.5 13.654 18.6534 0 
191 1 0.419678 79.5 14.1134 18.5356 0 
107 1 0.375813 79.5 14.6317 18.4406 0 
173 1 0.377039 79.5 15.168 18.3601 0 
146 1 0.418691 79.5 15.6697 18.6563 0 
169 1 0.378453 79.5 4.23872 18.8477 0 
212 1 0.41762 79.5 4.8718 18.8274 0 
298 1 0.374614 79.5 5.40622 18.8734 0 
148 1 0.418606 79.5 5.90081 18.9203 0 
166 1 0.418977 79.5 6.37708 19.0017 0 
199 1 0.417759 79.5 6.88742 19.0418 0 
245 1 0.376779 79.5 7.14864 18.6987 0 
122 1 0.41785 79.5 7.35793 19.0901 0 
200 1 0.417021 79.5 7.60076 18.7254 0 
42 1 0.418538 79.5 7.82835 19.1045 0 
186 1 0.417704 79.5 8.05203 18.7433 0 
75 1 0.376447 79.5 8.47103 18.7544 0 
59 1 0.419658 79.5 8.88889 18.756 0 
261 1 0.377169 79.5 9.28961 18.7633 0 
69 1 0.376926 79.5 9.69884 18.7683 0 
276 1 0.417911 79.5 10.1199 18.7655 0 
92 1 0.417624 79.5 10.5369 18.7772 0 
230 1 0.376846 79.5 10.9552 18.7795 0 
229 1 0.41843 79.5 11.3862 18.7773 0 
155 1 0.37768 79.5 11.8107 18.7755 0 
101 1 0.376457 79.5 12.236 18.7772 0 
29 1 0.417393 79.5 12.6887 18.7742 0 
24 1 0.416559 79.5 13.1722 18.7285 0 
165 1 0.417616 79.5 13.4525 19.0735 0 
176 1 0.376448 79.5 13.9347 19.0029 0 
160 1 0.418475 79.5 14.4401 18.9132 0 
30 1 0.376677 79.5 14.9658 18.8201 0 
33 1 0.378072 79.5 4.60779 19.272 0 
71 1 0.377916 79.5 5.14639 19.2857 0 
135 1 0.377153 79.5 5.64724 19.3209 0 
252 1 0.378093 79.5 6.12952 19.3741 0 
301 1 0.41979 79.5 6.62642 19.4042 0 
63 1 0.377654 79.5 7.11253 19.4334 0 
129 1 0.417621 79.5 7.60187 19.4618 0 
38 1 0.377736 79.5 8.04819 19.4605 0 
163 1 0.376966 79.5 8.26131 19.1168 0 
15 1 0.377305 79.5 8.47802 19.4647 0 
184 1 0.417741 79.5 8.67284 19.1146 0 
118 1 0.41851 79.5 8.89422 19.4772 0 
140 1 0.378892 79.5 9.08391 19.1222 0 
12 1 0.37772 79.5 9.29197 19.4782 0 
94 1 0.419162 79.5 9.48049 19.1111 0 
296 1 0.418792 79.5 9.68829 19.4714 0 
121 1 0.418093 79.5 9.89741 19.1119 0 
293 1 0.417075 79.5 10.1209 19.4567 0 
216 1 0.376432 79.5 10.3292 19.1216 0 
284 1 0.376238 79.5 10.5269 19.4672 0 
192 1 0.418338 79.5 10.7431 19.137 0 
283 1 0.377483 79.5 10.9565 19.4723 0 
209 1 0.419672 79.5 11.1622 19.1314 0 
89 1 0.376485 79.5 11.3593 19.4913 0 
127 1 0.417806 79.5 11.5891 19.1462 0 
41 1 0.375472 79.5 11.784 19.4967 0 
190 1 0.417687 79.5 12.0175 19.1362 0 
17 1 0.37517 79.5 12.2168 19.4891 0 
221 1 0.419252 79.5 12.4683 19.1509 0 
302 1 0.377055 79.5 12.7292 19.4708 0 
266 1 0.376034 79.5 12.9499 19.115 0 
49 1 0.419815 79.5 13.2063 19.4634 0 
45 1 0.41618 79.5 13.7242 19.4387 0 
282 1 0.416306 79.5 14.23 19.3706 0 
238 1 0.417818 79.5 14.7835 19.2991 0 
174 1 0.419338 79.5 15.3673 19.1702 0 
84 1 0.417941 79.5 4.18518 19.6171 0 
50 1 0.378881 79.5 4.84231 19.7184 0 
123 1 0.416947 79.5 5.36742 19.7337 0 
21 1 0.420824 79.5 5.87559 19.7584 0 
161 1 0.416955 79.5 6.37431 19.782 0 
194 1 0.416887 79.5 6.8726 19.7926 0 
218 1 0.418811 79.5 7.35059 19.7959 0 
32 1 0.375477 79.5 7.82736 19.8153 0 
145 1 0.419666 79.5 8.26458 19.8001 0 
87 1 0.377593 79.5 8.69239 19.8189 0 
27 1 0.375782 79.5 9.1081 19.8204 0 
8 1 0.378024 79.5 9.5 19.821 0 
253 1 0.415824 79.5 9.91331 19.8137 0 
133 1 0.418748 79.5 10.33 19.8107 0 
47 1 0.418289 79.5 10.7451 19.8041 0 
285 1 0.37676 79.5 11.1518 19.8186 0 
11 1 0.377588 79.5 11.5643 19.8184 0 
288 1 0.377512 79.5 11.9991 19.8178 0 
26 1 0.417817 79.5 12.4719 19.7969 0 
114 1 0.376368 79.5 12.9519 19.8136 0 
3 1 0.376593 79.5 13.4639 19.809 0 
220 1 0.375738 79.5 13.9951 19.7901 0 
171 1 0.417726 79.5 14.5385 19.7497 0 
83 1 0.419111 79.5 15.1269 19.6998 0 
267 1 0.418107 79.5 15.751 19.6057 0 
