# LAMMPS data file for rigid bodies

303 atoms

1 atom types

0.0 	 20.0 	 xlo xhi 
0.0 	 20.0 	 ylo yhi 
-1.0 	 1.0 	 zlo zhi 

Atoms

141 1 0.417537 79.5 8.18114 13.7753 0 
137 1 0.377547 79.5 9.26045 13.7431 0 
154 1 0.377463 79.5 9.85804 13.6043 0 
248 1 0.417624 79.5 10.5 13.4705 0 
116 1 0.418074 79.5 7.55242 14.1512 0 
78 1 0.376793 79.5 8.72345 14.0068 0 
290 1 0.417552 79.5 9.71398 14.1565 0 
206 1 0.377502 79.5 10.2851 14.029 0 
142 1 0.376502 79.5 10.8725 13.9201 0 
5 1 0.417956 79.5 11.456 13.7837 0 
82 1 0.37548 79.5 12.0862 13.862 0 
211 1 0.376915 79.5 7.07514 14.5465 0 
156 1 0.41736 79.5 8.11211 14.3698 0 
227 1 0.419731 79.5 8.63241 14.5623 0 
300 1 0.417817 79.5 9.18154 14.3268 0 
215 1 0.417318 79.5 10.1194 14.5391 0 
138 1 0.417163 79.5 10.675 14.4224 0 
159 1 0.418141 79.5 11.2595 14.3454 0 
28 1 0.376324 79.5 11.8311 14.3483 0 
139 1 0.377813 79.5 12.4619 14.3206 0 
187 1 0.376835 79.5 6.63994 14.9271 0 
76 1 0.376361 79.5 7.61371 14.7516 0 
271 1 0.419038 79.5 8.10718 14.9186 0 
231 1 0.418206 79.5 8.5913 15.0974 0 
235 1 0.417949 79.5 9.09252 14.8522 0 
172 1 0.377906 79.5 9.6019 14.6864 0 
55 1 0.377258 79.5 9.98845 15.023 0 
246 1 0.419558 79.5 10.4999 14.9168 0 
77 1 0.416408 79.5 11.0357 14.8347 0 
104 1 0.417492 79.5 11.5893 14.8125 0 
95 1 0.378511 79.5 12.162 14.7879 0 
205 1 0.417837 79.5 12.7851 14.7856 0 
277 1 0.378085 79.5 13.4126 14.7948 0 
34 1 0.376733 79.5 6.25402 15.3307 0 
279 1 0.419009 79.5 6.80922 15.5025 0 
56 1 0.417661 79.5 7.19785 15.1207 0 
103 1 0.376732 79.5 7.6866 15.2935 0 
150 1 0.42017 79.5 8.16063 15.4442 0 
74 1 0.418792 79.5 9.02029 15.3568 0 
37 1 0.376521 79.5 9.50046 15.1523 0 
225 1 0.418808 79.5 9.86969 15.4803 0 
96 1 0.375974 79.5 10.3513 15.3688 0 
270 1 0.377661 79.5 10.844 15.2872 0 
131 1 0.37743 79.5 11.3453 15.2438 0 
81 1 0.377631 79.5 11.901 15.2209 0 
195 1 0.376076 79.5 12.4442 15.2219 0 
16 1 0.418857 79.5 13.0892 15.2735 0 
19 1 0.377048 79.5 13.6972 15.3514 0 
236 1 0.417091 79.5 14.3246 15.5521 0 
292 1 0.419322 79.5 5.8369 15.718 0 
61 1 0.416969 79.5 6.42789 15.8961 0 
249 1 0.37714 79.5 7.32383 15.6672 0 
62 1 0.419478 79.5 7.80297 15.8037 0 
36 1 0.41802 79.5 8.29947 15.9663 0 
91 1 0.375891 79.5 8.59691 15.6053 0 
226 1 0.418002 79.5 8.94971 15.87 0 
250 1 0.419005 79.5 9.41325 15.6233 0 
14 1 0.378044 79.5 9.76196 15.9623 0 
144 1 0.417225 79.5 10.2026 15.8163 0 
149 1 0.420339 79.5 10.6768 15.7257 0 
109 1 0.416555 79.5 11.152 15.6819 0 
86 1 0.418347 79.5 11.6472 15.6326 0 
295 1 0.376364 79.5 12.1669 15.6338 0 
6 1 0.41784 79.5 12.7207 15.6526 0 
60 1 0.378985 79.5 13.3294 15.7624 0 
256 1 0.417029 79.5 13.872 15.9311 0 
264 1 0.375728 79.5 5.50861 16.1758 0 
180 1 0.4178 79.5 6.08585 16.3014 0 
147 1 0.378206 79.5 6.62303 16.4182 0 
251 1 0.418401 79.5 6.95696 16.0344 0 
223 1 0.377582 79.5 7.43604 16.1629 0 
196 1 0.417674 79.5 7.89565 16.2855 0 
128 1 0.417636 79.5 8.70037 16.2593 0 
247 1 0.417974 79.5 9.3501 16.0808 0 
93 1 0.375858 79.5 10.055 16.2501 0 
53 1 0.418687 79.5 10.5152 16.1665 0 
234 1 0.376567 79.5 10.9697 16.1193 0 
239 1 0.376202 79.5 11.4192 16.068 0 
193 1 0.377638 79.5 11.8968 16.0249 0 
110 1 0.376982 79.5 12.4128 16.0324 0 
72 1 0.418442 79.5 12.1369 16.4131 0 
303 1 0.377701 79.5 12.6316 16.4409 0 
57 1 0.417312 79.5 12.9673 16.1076 0 
112 1 0.37724 79.5 13.4858 16.2772 0 
98 1 0.376685 79.5 14.4119 16.1889 0 
66 1 0.417743 79.5 14.9842 16.4062 0 
100 1 0.41738 79.5 5.11654 16.5944 0 
54 1 0.417762 79.5 5.73023 16.7065 0 
7 1 0.376836 79.5 6.30277 16.7861 0 
88 1 0.377633 79.5 6.80115 16.881 0 
273 1 0.375407 79.5 7.10573 16.521 0 
85 1 0.378114 79.5 7.55103 16.6296 0 
124 1 0.377489 79.5 7.97609 16.75 0 
113 1 0.376209 79.5 8.31944 16.446 0 
44 1 0.376441 79.5 8.39192 16.845 0 
197 1 0.418138 79.5 8.80454 16.7803 0 
48 1 0.417895 79.5 9.10458 16.4454 0 
281 1 0.419313 79.5 9.26739 16.8641 0 
259 1 0.416952 79.5 9.57496 16.4712 0 
67 1 0.375259 79.5 9.95539 16.6345 0 
73 1 0.418056 79.5 10.3728 16.5915 0 
207 1 0.375123 79.5 10.797 16.5295 0 
275 1 0.375236 79.5 11.2213 16.4862 0 
278 1 0.377425 79.5 11.4585 16.8645 0 
20 1 0.418644 79.5 11.6657 16.4489 0 
289 1 0.377045 79.5 11.8859 16.8418 0 
291 1 0.418671 79.5 12.3444 16.8193 0 
126 1 0.377564 79.5 12.7973 16.8637 0 
35 1 0.375085 79.5 13.1286 16.5821 0 
203 1 0.418748 79.5 13.5715 16.8044 0 
105 1 0.378261 79.5 13.9819 16.495 0 
244 1 0.377185 79.5 14.534 16.7696 0 
70 1 0.418537 79.5 4.7777 17.0997 0 
257 1 0.417584 79.5 5.39236 17.146 0 
1 1 0.416656 79.5 5.97741 17.1781 0 
25 1 0.418251 79.5 6.494 17.2525 0 
111 1 0.377387 79.5 7.25529 16.9779 0 
175 1 0.375285 79.5 7.69623 17.077 0 
13 1 0.376492 79.5 8.13463 17.1748 0 
52 1 0.417492 79.5 8.5888 17.2234 0 
168 1 0.377281 79.5 9.00798 17.2088 0 
125 1 0.417497 79.5 9.44694 17.301 0 
99 1 0.418162 79.5 9.69524 16.9477 0 
134 1 0.377548 79.5 10.1592 16.9835 0 
40 1 0.417655 79.5 9.91738 17.3285 0 
214 1 0.375802 79.5 10.5966 16.9466 0 
39 1 0.417739 79.5 10.3927 17.3205 0 
18 1 0.417229 79.5 11.0244 16.8965 0 
299 1 0.376562 79.5 10.8311 17.2893 0 
269 1 0.377027 79.5 11.2646 17.2554 0 
10 1 0.377297 79.5 11.6793 17.2383 0 
153 1 0.418903 79.5 12.1247 17.2226 0 
23 1 0.377532 79.5 12.5744 17.2219 0 
2 1 0.418632 79.5 13.1626 17.1194 0 
167 1 0.376423 79.5 13.6705 17.2875 0 
43 1 0.416658 79.5 14.0865 17.0183 0 
158 1 0.378408 79.5 14.6477 17.3141 0 
179 1 0.419049 79.5 15.1403 17.0497 0 
90 1 0.418215 79.5 4.49148 17.6516 0 
254 1 0.418928 79.5 5.09158 17.6306 0 
232 1 0.41966 79.5 5.68816 17.6075 0 
294 1 0.420196 79.5 6.20736 17.6608 0 
136 1 0.377551 79.5 6.96502 17.3388 0 
152 1 0.419353 79.5 6.70566 17.7219 0 
170 1 0.419066 79.5 7.40423 17.4286 0 
202 1 0.416907 79.5 7.85617 17.5069 0 
64 1 0.37804 79.5 8.28415 17.5759 0 
162 1 0.417925 79.5 8.68501 17.6443 0 
204 1 0.417908 79.5 9.10008 17.6179 0 
228 1 0.377094 79.5 9.48934 17.698 0 
106 1 0.418321 79.5 9.88039 17.7418 0 
151 1 0.377236 79.5 10.6637 17.6613 0 
233 1 0.376541 79.5 10.2718 17.6981 0 
119 1 0.418318 79.5 11.0847 17.6346 0 
65 1 0.375901 79.5 11.4986 17.6249 0 
242 1 0.419369 79.5 11.9278 17.6176 0 
31 1 0.376295 79.5 12.3731 17.6093 0 
240 1 0.417923 79.5 12.8439 17.5481 0 
237 1 0.377021 79.5 13.297 17.5481 0 
115 1 0.377962 79.5 13.7748 17.7397 0 
297 1 0.418019 79.5 14.1978 17.53 0 
286 1 0.417076 79.5 15.0772 17.7109 0 
173 1 0.377039 79.5 15.6072 17.5268 0 
265 1 0.4186 79.5 4.16622 18.1939 0 
219 1 0.416465 79.5 4.81841 18.1734 0 
183 1 0.418934 79.5 5.43305 18.0448 0 
117 1 0.376414 79.5 5.95788 18.072 0 
157 1 0.417922 79.5 6.43409 18.1242 0 
217 1 0.420187 79.5 6.91396 18.1766 0 
189 1 0.374207 79.5 7.15972 17.8021 0 
224 1 0.417151 79.5 7.60149 17.8746 0 
177 1 0.417786 79.5 8.05135 17.9357 0 
143 1 0.378123 79.5 8.45966 18.0068 0 
132 1 0.378247 79.5 8.85847 18.0289 0 
198 1 0.418579 79.5 9.25624 18.0373 0 
287 1 0.378509 79.5 9.66404 18.0785 0 
280 1 0.376116 79.5 10.0753 18.0891 0 
102 1 0.419434 79.5 10.4706 18.0466 0 
268 1 0.418081 79.5 10.8924 18.0156 0 
46 1 0.377328 79.5 11.3091 18.0083 0 
164 1 0.419166 79.5 11.7176 18.0054 0 
181 1 0.377496 79.5 12.1515 17.994 0 
208 1 0.376279 79.5 12.5668 17.9735 0 
79 1 0.376387 79.5 12.9825 17.9605 0 
185 1 0.37559 79.5 13.4011 17.9493 0 
130 1 0.41741 79.5 14.1368 18.07 0 
182 1 0.376421 79.5 14.5941 17.8921 0 
160 1 0.418475 79.5 15.5794 18.1782 0 
263 1 0.375892 79.5 5.23237 18.485 0 
4 1 0.418796 79.5 5.73509 18.4881 0 
243 1 0.376024 79.5 6.21322 18.5294 0 
200 1 0.417021 79.5 6.67355 18.5713 0 
186 1 0.417704 79.5 7.1391 18.6268 0 
42 1 0.418538 79.5 7.36934 18.247 0 
210 1 0.417016 79.5 7.82215 18.3056 0 
97 1 0.377275 79.5 8.24576 18.3549 0 
222 1 0.376423 79.5 8.64981 18.3828 0 
51 1 0.378133 79.5 9.04302 18.4021 0 
213 1 0.418946 79.5 9.45284 18.4195 0 
262 1 0.418034 79.5 9.87021 18.4313 0 
22 1 0.376996 79.5 10.2761 18.4267 0 
229 1 0.41843 79.5 10.695 18.3987 0 
190 1 0.417687 79.5 11.1181 18.3802 0 
101 1 0.376457 79.5 11.5257 18.3855 0 
255 1 0.419607 79.5 11.9445 18.383 0 
80 1 0.376209 79.5 12.3629 18.3621 0 
272 1 0.378957 79.5 12.7857 18.3453 0 
274 1 0.37582 79.5 13.2299 18.3325 0 
241 1 0.375449 79.5 13.6996 18.2475 0 
191 1 0.419678 79.5 14.0134 18.5858 0 
174 1 0.419338 79.5 14.504 18.4347 0 
107 1 0.375813 79.5 14.9904 18.2756 0 
84 1 0.417941 79.5 4.47459 18.6923 0 
120 1 0.378184 79.5 4.96929 18.8654 0 
298 1 0.374614 79.5 5.48339 18.9102 0 
260 1 0.417822 79.5 5.97339 18.9359 0 
212 1 0.41762 79.5 6.4447 18.9763 0 
148 1 0.418606 79.5 6.90938 19.0063 0 
245 1 0.376779 79.5 7.36971 19.0344 0 
188 1 0.417316 79.5 7.59235 18.6741 0 
163 1 0.376966 79.5 7.81046 19.0489 0 
108 1 0.37715 79.5 8.03087 18.7044 0 
261 1 0.377169 79.5 8.43838 18.7261 0 
75 1 0.376447 79.5 8.23026 19.0723 0 
201 1 0.37868 79.5 8.84109 18.7488 0 
184 1 0.417741 79.5 8.64727 19.097 0 
59 1 0.419658 79.5 9.23901 18.7766 0 
140 1 0.378892 79.5 9.66416 18.7805 0 
68 1 0.37735 79.5 10.0637 18.7764 0 
178 1 0.415965 79.5 10.4888 18.7595 0 
276 1 0.417911 79.5 10.2724 19.1103 0 
92 1 0.417624 79.5 10.9102 18.7612 0 
58 1 0.415805 79.5 11.3257 18.7518 0 
155 1 0.37768 79.5 11.7381 18.7526 0 
9 1 0.378113 79.5 12.1482 18.7542 0 
302 1 0.377055 79.5 12.3629 19.1081 0 
127 1 0.417806 79.5 12.5762 18.7347 0 
49 1 0.419815 79.5 12.8252 19.1098 0 
29 1 0.417393 79.5 13.0379 18.7155 0 
165 1 0.417616 79.5 13.3037 19.0859 0 
24 1 0.416559 79.5 13.526 18.6766 0 
17 1 0.37517 79.5 13.8053 19.0347 0 
221 1 0.419252 79.5 14.3186 18.9555 0 
30 1 0.376677 79.5 14.8169 18.8317 0 
176 1 0.376448 79.5 15.3269 18.695 0 
146 1 0.418691 79.5 15.7898 19.0623 0 
258 1 0.419432 79.5 4.05591 19.1567 0 
33 1 0.378072 79.5 4.65772 19.2605 0 
21 1 0.420824 79.5 5.20077 19.3205 0 
199 1 0.417759 79.5 5.71731 19.346 0 
135 1 0.377153 79.5 6.21126 19.3686 0 
252 1 0.378093 79.5 6.67221 19.3902 0 
166 1 0.418977 79.5 7.13144 19.4016 0 
122 1 0.41785 79.5 7.5879 19.4152 0 
129 1 0.417621 79.5 8.0174 19.4273 0 
63 1 0.377654 79.5 8.44188 19.4392 0 
38 1 0.377736 79.5 8.85943 19.4551 0 
15 1 0.377305 79.5 9.05564 19.1298 0 
87 1 0.377593 79.5 9.26841 19.4687 0 
118 1 0.41851 79.5 9.46718 19.1259 0 
12 1 0.37772 79.5 9.65362 19.4757 0 
69 1 0.376926 79.5 9.86393 19.1213 0 
94 1 0.419162 79.5 10.0612 19.4652 0 
293 1 0.417075 79.5 10.4755 19.4698 0 
121 1 0.418093 79.5 10.6981 19.1199 0 
284 1 0.376238 79.5 10.8984 19.4623 0 
216 1 0.376432 79.5 11.1071 19.1236 0 
192 1 0.418338 79.5 11.525 19.1168 0 
89 1 0.376485 79.5 11.31 19.4591 0 
230 1 0.376846 79.5 11.9416 19.1123 0 
283 1 0.377483 79.5 11.7185 19.4651 0 
41 1 0.375472 79.5 12.15 19.4528 0 
26 1 0.417817 79.5 12.5916 19.4723 0 
288 1 0.377512 79.5 13.0718 19.4719 0 
282 1 0.416306 79.5 13.5724 19.4392 0 
266 1 0.376034 79.5 14.0881 19.3774 0 
3 1 0.376593 79.5 14.6286 19.3182 0 
238 1 0.417818 79.5 15.1727 19.2229 0 
169 1 0.378453 79.5 4.35774 19.6837 0 
50 1 0.378881 79.5 4.92217 19.7316 0 
71 1 0.377916 79.5 5.45129 19.7578 0 
123 1 0.416947 79.5 5.95357 19.7659 0 
161 1 0.416955 79.5 6.43701 19.7758 0 
194 1 0.416887 79.5 6.90447 19.7911 0 
301 1 0.41979 79.5 7.36779 19.7932 0 
32 1 0.375477 79.5 7.80151 19.8126 0 
218 1 0.418811 79.5 8.22192 19.7974 0 
145 1 0.419666 79.5 8.64483 19.7982 0 
253 1 0.415824 79.5 9.06217 19.8042 0 
27 1 0.375782 79.5 9.45866 19.8188 0 
296 1 0.418792 79.5 9.85449 19.8159 0 
8 1 0.378024 79.5 10.273 19.8209 0 
47 1 0.418289 79.5 10.6948 19.8109 0 
133 1 0.418748 79.5 11.1113 19.8016 0 
285 1 0.37676 79.5 11.515 19.8156 0 
209 1 0.419672 79.5 11.9368 19.7986 0 
11 1 0.377588 79.5 12.3678 19.815 0 
220 1 0.375738 79.5 12.8343 19.8143 0 
114 1 0.376368 79.5 13.3186 19.8081 0 
45 1 0.41618 79.5 13.8572 19.7842 0 
171 1 0.417726 79.5 14.386 19.7464 0 
83 1 0.419111 79.5 14.9427 19.7164 0 
267 1 0.418107 79.5 15.5526 19.6501 0 
