# LAMMPS data file for rigid bodies

303 atoms

1 atom types

0.0 	 20.0 	 xlo xhi 
0.0 	 20.0 	 ylo yhi 
-1.0 	 1.0 	 zlo zhi 

Atoms

137 1 0.377547 79.5 8.85975 13.566 0 
248 1 0.417624 79.5 9.79114 13.4196 0 
290 1 0.417552 79.5 10.3836 13.6908 0 
142 1 0.376502 79.5 10.9414 13.4893 0 
154 1 0.377463 79.5 7.79453 13.8628 0 
156 1 0.41736 79.5 8.36805 13.936 0 
172 1 0.377906 79.5 8.88793 14.1581 0 
206 1 0.377502 79.5 9.35641 13.8242 0 
138 1 0.417163 79.5 9.88234 14.0329 0 
77 1 0.416408 79.5 10.9196 14.0682 0 
5 1 0.417956 79.5 11.4998 13.7919 0 
82 1 0.37548 79.5 11.9661 14.1554 0 
116 1 0.418074 79.5 6.89203 14.6587 0 
141 1 0.417537 79.5 7.32029 14.2505 0 
78 1 0.376793 79.5 7.87871 14.4267 0 
300 1 0.417817 79.5 8.40898 14.5121 0 
215 1 0.417318 79.5 9.39751 14.3612 0 
55 1 0.377258 79.5 9.8781 14.5603 0 
246 1 0.419558 79.5 10.3898 14.2739 0 
270 1 0.377661 79.5 10.8312 14.5982 0 
159 1 0.418141 79.5 11.389 14.3921 0 
195 1 0.376076 79.5 12.1415 14.6483 0 
139 1 0.377813 79.5 12.6037 14.3538 0 
211 1 0.376915 79.5 6.5212 15.065 0 
187 1 0.376835 79.5 7.46036 14.8335 0 
56 1 0.417661 79.5 7.97287 14.9446 0 
227 1 0.419731 79.5 8.48236 15.041 0 
235 1 0.417949 79.5 8.92665 14.679 0 
37 1 0.376521 79.5 9.40985 14.8597 0 
250 1 0.419005 79.5 9.86882 15.0494 0 
225 1 0.418808 79.5 10.3364 14.7937 0 
104 1 0.417492 79.5 11.2028 14.9379 0 
28 1 0.376324 79.5 11.6837 14.8185 0 
95 1 0.378511 79.5 12.5244 14.9807 0 
57 1 0.417312 79.5 13.0725 14.7483 0 
19 1 0.377048 79.5 13.8371 15.0074 0 
292 1 0.419322 79.5 6.09426 15.4213 0 
34 1 0.376733 79.5 7.103 15.2173 0 
76 1 0.376361 79.5 7.60077 15.3498 0 
271 1 0.419038 79.5 8.0871 15.4514 0 
150 1 0.42017 79.5 8.56983 15.5427 0 
74 1 0.418792 79.5 8.97087 15.1829 0 
231 1 0.418206 79.5 9.43936 15.336 0 
91 1 0.375891 79.5 9.87644 15.5257 0 
96 1 0.375974 79.5 10.2914 15.2883 0 
144 1 0.417225 79.5 10.7332 15.1161 0 
81 1 0.377631 79.5 11.0898 15.4504 0 
131 1 0.37743 79.5 11.5423 15.3061 0 
60 1 0.378985 79.5 12.0338 15.1697 0 
295 1 0.376364 79.5 12.3658 15.5269 0 
6 1 0.41784 79.5 12.8472 15.3747 0 
277 1 0.378085 79.5 13.3558 15.2496 0 
236 1 0.417091 79.5 14.3565 15.4751 0 
61 1 0.416969 79.5 5.75749 15.8862 0 
180 1 0.4178 79.5 6.36122 15.9811 0 
279 1 0.419009 79.5 6.72483 15.5829 0 
249 1 0.37714 79.5 7.26398 15.7151 0 
103 1 0.376732 79.5 7.7497 15.831 0 
273 1 0.375407 79.5 8.2097 15.9235 0 
128 1 0.417636 79.5 9.04153 15.6697 0 
226 1 0.418002 79.5 9.49576 15.8094 0 
259 1 0.416952 79.5 9.94542 15.9875 0 
93 1 0.375858 79.5 10.2811 15.7248 0 
239 1 0.376202 79.5 10.6765 15.6054 0 
234 1 0.376567 79.5 10.9292 15.9489 0 
109 1 0.416555 79.5 11.3983 15.7885 0 
86 1 0.418347 79.5 11.8839 15.6498 0 
303 1 0.377701 79.5 12.2249 15.9974 0 
110 1 0.376982 79.5 12.699 15.8883 0 
205 1 0.417837 79.5 13.209 15.7746 0 
16 1 0.418857 79.5 13.7681 15.6526 0 
264 1 0.375728 79.5 5.44117 16.3265 0 
223 1 0.377582 79.5 6.06162 16.3962 0 
251 1 0.418401 79.5 6.91234 16.0892 0 
62 1 0.419478 79.5 7.41486 16.1965 0 
85 1 0.378114 79.5 7.88293 16.2877 0 
52 1 0.417492 79.5 8.33377 16.3741 0 
36 1 0.41802 79.5 8.67346 16.0164 0 
14 1 0.378044 79.5 9.12234 16.1213 0 
247 1 0.417974 79.5 9.57062 16.2581 0 
73 1 0.418056 79.5 10.0491 16.4115 0 
53 1 0.418687 79.5 10.4701 16.1188 0 
20 1 0.418644 79.5 10.8508 16.4047 0 
149 1 0.420339 79.5 11.2872 16.2461 0 
193 1 0.377638 79.5 11.7594 16.1069 0 
289 1 0.377045 79.5 12.0924 16.4331 0 
35 1 0.375085 79.5 12.554 16.3357 0 
98 1 0.376685 79.5 13.042 16.2481 0 
112 1 0.37724 79.5 13.5609 16.1553 0 
66 1 0.417743 79.5 14.2031 16.0594 0 
70 1 0.418537 79.5 5.04626 16.728 0 
257 1 0.417584 79.5 5.72612 16.7946 0 
54 1 0.417762 79.5 6.3065 16.8555 0 
147 1 0.378206 79.5 6.61021 16.4745 0 
88 1 0.377633 79.5 7.10306 16.5715 0 
111 1 0.377387 79.5 7.57545 16.6524 0 
13 1 0.376492 79.5 8.01583 16.725 0 
113 1 0.376209 79.5 8.7785 16.4573 0 
44 1 0.376441 79.5 8.45374 16.8048 0 
281 1 0.419313 79.5 8.88194 16.8841 0 
48 1 0.417895 79.5 9.21479 16.5482 0 
67 1 0.375259 79.5 9.66402 16.6664 0 
134 1 0.377548 79.5 10.0772 16.8348 0 
207 1 0.375123 79.5 10.4554 16.567 0 
214 1 0.375802 79.5 10.8197 16.8648 0 
275 1 0.375236 79.5 11.1861 16.7031 0 
72 1 0.418442 79.5 11.6357 16.5427 0 
18 1 0.417229 79.5 11.9562 16.8786 0 
2 1 0.418632 79.5 12.4116 16.7849 0 
291 1 0.418671 79.5 12.8843 16.6978 0 
126 1 0.377564 79.5 13.3815 16.6139 0 
203 1 0.418748 79.5 13.9143 16.5265 0 
256 1 0.417029 79.5 14.5676 16.5167 0 
90 1 0.418215 79.5 4.72053 17.2439 0 
254 1 0.418928 79.5 5.38741 17.2171 0 
100 1 0.41738 79.5 6.00114 17.2529 0 
7 1 0.376836 79.5 6.52302 17.3115 0 
124 1 0.377489 79.5 6.80954 16.9323 0 
136 1 0.377551 79.5 7.28188 17.0043 0 
64 1 0.37804 79.5 7.7233 17.0827 0 
196 1 0.417674 79.5 8.15907 17.1525 0 
202 1 0.416907 79.5 8.58958 17.2403 0 
197 1 0.418138 79.5 9.32286 16.9715 0 
177 1 0.417786 79.5 9.01155 17.3203 0 
99 1 0.418162 79.5 9.7535 17.0706 0 
39 1 0.417739 79.5 10.1944 17.3047 0 
299 1 0.376562 79.5 10.4391 16.9634 0 
125 1 0.417497 79.5 10.638 17.3098 0 
119 1 0.418318 79.5 11.0606 17.2206 0 
153 1 0.418903 79.5 11.496 16.9782 0 
10 1 0.377297 79.5 11.8352 17.2993 0 
278 1 0.377425 79.5 12.2591 17.2251 0 
237 1 0.377021 79.5 12.7004 17.1498 0 
240 1 0.417923 79.5 13.19 17.0703 0 
43 1 0.416658 79.5 13.6945 17.0158 0 
244 1 0.377185 79.5 14.2089 16.9443 0 
105 1 0.378261 79.5 14.5345 17.2975 0 
158 1 0.378408 79.5 14.9726 16.9232 0 
183 1 0.418934 79.5 5.10018 17.6925 0 
25 1 0.418251 79.5 5.70965 17.6567 0 
219 1 0.416465 79.5 6.25374 17.7055 0 
232 1 0.41966 79.5 6.99808 17.3775 0 
157 1 0.417922 79.5 6.74126 17.7689 0 
162 1 0.417925 79.5 7.45859 17.4528 0 
170 1 0.419066 79.5 7.90967 17.5284 0 
224 1 0.417151 79.5 8.34529 17.6084 0 
222 1 0.376423 79.5 8.76534 17.6685 0 
143 1 0.378123 79.5 9.17635 17.7262 0 
204 1 0.417908 79.5 9.42842 17.3934 0 
228 1 0.377094 79.5 9.60566 17.7692 0 
168 1 0.377281 79.5 9.82958 17.4594 0 
40 1 0.417655 79.5 10.4074 17.6995 0 
198 1 0.418579 79.5 10.8394 17.6751 0 
151 1 0.377236 79.5 11.2387 17.706 0 
46 1 0.377328 79.5 11.4327 17.3794 0 
233 1 0.376541 79.5 11.663 17.6992 0 
269 1 0.377027 79.5 12.084 17.633 0 
23 1 0.377532 79.5 12.5139 17.5679 0 
297 1 0.418019 79.5 12.9847 17.5054 0 
167 1 0.376423 79.5 13.4687 17.4586 0 
182 1 0.376421 79.5 13.9884 17.4163 0 
241 1 0.375449 79.5 14.6867 17.7552 0 
130 1 0.41741 79.5 15.174 17.4789 0 
265 1 0.4186 79.5 4.42828 17.8214 0 
4 1 0.418796 79.5 4.87036 18.2075 0 
1 1 0.416656 79.5 5.46774 18.0919 0 
217 1 0.420187 79.5 5.99586 18.1136 0 
117 1 0.376414 79.5 6.4922 18.1581 0 
42 1 0.418538 79.5 6.95986 18.2025 0 
175 1 0.375285 79.5 7.21093 17.8296 0 
152 1 0.419353 79.5 7.65887 17.8967 0 
189 1 0.374207 79.5 8.10275 17.9593 0 
97 1 0.377275 79.5 8.52132 18.0101 0 
132 1 0.378247 79.5 8.93005 18.0423 0 
213 1 0.418946 79.5 9.37272 18.0882 0 
287 1 0.378509 79.5 9.79513 18.12 0 
51 1 0.378133 79.5 10.0184 17.7833 0 
280 1 0.376116 79.5 10.2055 18.1078 0 
22 1 0.376996 79.5 10.6059 18.0627 0 
106 1 0.418321 79.5 11.0241 18.0593 0 
65 1 0.375901 79.5 11.453 18.0597 0 
268 1 0.418081 79.5 11.8847 18.0378 0 
181 1 0.377496 79.5 12.3185 17.9728 0 
242 1 0.419369 79.5 12.7723 17.9261 0 
31 1 0.376295 79.5 13.2397 17.8832 0 
115 1 0.377962 79.5 13.7088 17.8291 0 
208 1 0.376279 79.5 14.2097 17.8301 0 
274 1 0.37582 79.5 13.9391 18.2124 0 
286 1 0.417076 79.5 15.0583 18.1202 0 
179 1 0.419049 79.5 15.6312 17.9488 0 
263 1 0.375892 79.5 4.38905 18.5089 0 
298 1 0.374614 79.5 5.27403 18.5232 0 
243 1 0.376024 79.5 5.76485 18.5317 0 
200 1 0.417021 79.5 6.2528 18.5495 0 
188 1 0.417316 79.5 6.73427 18.5955 0 
294 1 0.420196 79.5 7.41054 18.2709 0 
163 1 0.376966 79.5 7.18399 18.6415 0 
210 1 0.417016 79.5 7.86525 18.314 0 
108 1 0.37715 79.5 8.29037 18.3473 0 
261 1 0.377169 79.5 8.69898 18.383 0 
262 1 0.418034 79.5 9.11063 18.4081 0 
140 1 0.378892 79.5 9.5662 18.4446 0 
68 1 0.37735 79.5 9.98201 18.4501 0 
178 1 0.415965 79.5 10.4157 18.4388 0 
229 1 0.41843 79.5 10.8315 18.4305 0 
102 1 0.419434 79.5 11.2503 18.4262 0 
101 1 0.376457 79.5 11.6676 18.4137 0 
190 1 0.417687 79.5 12.1124 18.3907 0 
164 1 0.419166 79.5 12.5509 18.3337 0 
80 1 0.376209 79.5 13.014 18.2924 0 
24 1 0.416559 79.5 13.2514 18.6622 0 
272 1 0.378957 79.5 13.4723 18.2491 0 
79 1 0.376387 79.5 13.7113 18.6282 0 
174 1 0.419338 79.5 14.2046 18.5843 0 
185 1 0.37559 79.5 14.5201 18.2323 0 
191 1 0.419678 79.5 14.874 18.6549 0 
173 1 0.377039 79.5 15.4301 18.5454 0 
84 1 0.417941 79.5 4.1408 19.0601 0 
258 1 0.419432 79.5 4.88197 18.8233 0 
212 1 0.41762 79.5 5.48759 18.9434 0 
260 1 0.417822 79.5 5.99755 18.962 0 
186 1 0.417704 79.5 6.4861 18.985 0 
245 1 0.376779 79.5 6.95253 19.0117 0 
301 1 0.41979 79.5 7.39171 19.0354 0 
201 1 0.37868 79.5 7.62743 18.6704 0 
122 1 0.41785 79.5 7.83999 19.0541 0 
75 1 0.376447 79.5 8.0615 18.6998 0 
129 1 0.417621 79.5 8.26628 19.1029 0 
184 1 0.417741 79.5 8.47762 18.7326 0 
59 1 0.419658 79.5 8.90386 18.7694 0 
94 1 0.419162 79.5 9.32823 18.7638 0 
69 1 0.376926 79.5 9.76178 18.7771 0 
92 1 0.417624 79.5 10.1909 18.7867 0 
192 1 0.418338 79.5 10.6292 18.7962 0 
155 1 0.37768 79.5 11.0315 18.801 0 
58 1 0.415805 79.5 11.4451 18.7942 0 
127 1 0.417806 79.5 11.8845 18.7673 0 
9 1 0.378113 79.5 12.3231 18.7485 0 
255 1 0.419607 79.5 12.7781 18.6985 0 
221 1 0.419252 79.5 12.5443 19.096 0 
29 1 0.417393 79.5 13.0176 19.0685 0 
17 1 0.37517 79.5 13.4905 19.0387 0 
266 1 0.376034 79.5 13.955 18.9979 0 
176 1 0.376448 79.5 14.4797 18.944 0 
160 1 0.418475 79.5 15.264 19.1026 0 
107 1 0.375813 79.5 15.8301 18.9707 0 
71 1 0.377916 79.5 4.67225 19.2769 0 
169 1 0.378453 79.5 5.20526 19.3206 0 
199 1 0.417759 79.5 5.73677 19.3795 0 
148 1 0.418606 79.5 6.23874 19.3939 0 
166 1 0.418977 79.5 6.72009 19.3934 0 
252 1 0.378093 79.5 7.17576 19.4084 0 
194 1 0.416887 79.5 7.62802 19.4312 0 
63 1 0.377654 79.5 8.05349 19.4512 0 
15 1 0.377305 79.5 8.49162 19.4704 0 
118 1 0.41851 79.5 8.69217 19.1272 0 
87 1 0.377593 79.5 8.90603 19.4622 0 
12 1 0.37772 79.5 9.12169 19.1266 0 
296 1 0.418792 79.5 9.33339 19.4706 0 
121 1 0.418093 79.5 9.54262 19.1166 0 
27 1 0.375782 79.5 9.73534 19.4741 0 
293 1 0.417075 79.5 9.95544 19.1258 0 
47 1 0.418289 79.5 10.1638 19.4777 0 
276 1 0.417911 79.5 10.4038 19.1437 0 
216 1 0.376432 79.5 10.6075 19.4817 0 
230 1 0.376846 79.5 10.818 19.1507 0 
283 1 0.377483 79.5 11.0004 19.4883 0 
41 1 0.375472 79.5 11.2148 19.1444 0 
209 1 0.419672 79.5 11.4199 19.4873 0 
26 1 0.417817 79.5 11.664 19.1473 0 
11 1 0.377588 79.5 11.8676 19.49 0 
302 1 0.377055 79.5 12.0943 19.1214 0 
49 1 0.419815 79.5 12.3066 19.4729 0 
165 1 0.417616 79.5 12.7803 19.4651 0 
282 1 0.416306 79.5 13.2591 19.4353 0 
3 1 0.376593 79.5 13.7424 19.3956 0 
238 1 0.417818 79.5 14.252 19.3554 0 
30 1 0.376677 79.5 14.7851 19.2881 0 
50 1 0.378881 79.5 4.31954 19.6679 0 
123 1 0.416947 79.5 4.92854 19.7276 0 
120 1 0.378184 79.5 5.4708 19.7603 0 
33 1 0.378072 79.5 5.99346 19.7839 0 
135 1 0.377153 79.5 6.47657 19.7905 0 
21 1 0.420824 79.5 6.94321 19.7903 0 
161 1 0.416955 79.5 7.40181 19.7946 0 
32 1 0.375477 79.5 7.84342 19.8137 0 
218 1 0.418811 79.5 8.26853 19.7992 0 
38 1 0.377736 79.5 8.69317 19.8155 0 
145 1 0.419666 79.5 9.09902 19.8085 0 
8 1 0.378024 79.5 9.52254 19.8209 0 
253 1 0.415824 79.5 9.93186 19.8139 0 
133 1 0.418748 79.5 10.3949 19.8138 0 
284 1 0.376238 79.5 10.8003 19.8198 0 
89 1 0.376485 79.5 11.203 19.8207 0 
285 1 0.37676 79.5 11.6395 19.819 0 
220 1 0.375738 79.5 12.0757 19.8182 0 
288 1 0.377512 79.5 12.5362 19.8154 0 
114 1 0.376368 79.5 13.0145 19.8131 0 
45 1 0.41618 79.5 13.513 19.7926 0 
83 1 0.419111 79.5 14.0171 19.7708 0 
171 1 0.417726 79.5 14.5615 19.7425 0 
267 1 0.418107 79.5 15.1172 19.688 0 
146 1 0.418691 79.5 15.6888 19.5883 0 
