# LAMMPS data file for rigid bodies

303 atoms

1 atom types

0.0 	 20.0 	 xlo xhi 
0.0 	 20.0 	 ylo yhi 
-1.0 	 1.0 	 zlo zhi 

Atoms

141 1 0.417537 79.5 8.30744 13.7302 0 
248 1 0.417624 79.5 9.40996 13.4304 0 
290 1 0.417552 79.5 9.99685 13.7143 0 
142 1 0.376502 79.5 10.5041 13.3776 0 
5 1 0.417956 79.5 11.1722 13.6423 0 
154 1 0.377463 79.5 8.93433 13.8575 0 
206 1 0.377502 79.5 9.49902 14.0034 0 
138 1 0.417163 79.5 10.6026 13.9384 0 
28 1 0.376324 79.5 11.6768 14.0329 0 
116 1 0.418074 79.5 7.29599 14.2919 0 
156 1 0.41736 79.5 7.91071 14.2546 0 
300 1 0.417817 79.5 8.52102 14.2887 0 
137 1 0.377547 79.5 9.0898 14.381 0 
235 1 0.417949 79.5 9.63298 14.492 0 
215 1 0.417318 79.5 10.1159 14.2734 0 
246 1 0.419558 79.5 10.6343 14.48 0 
77 1 0.416408 79.5 11.138 14.2389 0 
195 1 0.376076 79.5 11.5937 14.5788 0 
159 1 0.418141 79.5 12.2228 14.2246 0 
82 1 0.37548 79.5 12.5885 14.664 0 
139 1 0.377813 79.5 13.1327 14.5494 0 
292 1 0.419322 79.5 6.48078 14.9331 0 
187 1 0.376835 79.5 7.09741 14.8393 0 
78 1 0.376793 79.5 7.6491 14.8122 0 
271 1 0.419038 79.5 8.18146 14.7699 0 
227 1 0.419731 79.5 8.73159 14.7879 0 
172 1 0.377906 79.5 9.25224 14.854 0 
55 1 0.377258 79.5 9.73035 14.9589 0 
225 1 0.418808 79.5 10.1896 14.8131 0 
270 1 0.377661 79.5 10.6474 14.9694 0 
131 1 0.37743 79.5 11.1095 14.7664 0 
104 1 0.417492 79.5 11.5235 15.1052 0 
95 1 0.378511 79.5 12.0499 14.7948 0 
19 1 0.377048 79.5 13.576 14.9981 0 
279 1 0.419009 79.5 5.71329 15.4051 0 
251 1 0.418401 79.5 6.28909 15.5246 0 
34 1 0.376733 79.5 6.91803 15.3323 0 
76 1 0.376361 79.5 7.44005 15.2937 0 
249 1 0.37714 79.5 7.94462 15.2642 0 
231 1 0.418206 79.5 8.43964 15.2422 0 
74 1 0.418792 79.5 8.95879 15.2515 0 
37 1 0.376521 79.5 9.45324 15.3003 0 
250 1 0.419005 79.5 10.0318 15.3159 0 
96 1 0.375974 79.5 10.5029 15.3822 0 
109 1 0.416555 79.5 11.0324 15.2573 0 
60 1 0.378985 79.5 11.9743 15.2839 0 
16 1 0.418857 79.5 12.4772 15.1829 0 
277 1 0.378085 79.5 13.0079 15.1167 0 
57 1 0.417312 79.5 13.3791 15.546 0 
236 1 0.417091 79.5 13.9859 15.4722 0 
62 1 0.419478 79.5 6.74913 15.8097 0 
211 1 0.376915 79.5 7.25909 15.7646 0 
56 1 0.417661 79.5 7.74488 15.7259 0 
103 1 0.376732 79.5 8.2239 15.7038 0 
150 1 0.42017 79.5 8.69755 15.6814 0 
128 1 0.417636 79.5 9.18902 15.6924 0 
226 1 0.418002 79.5 9.67771 15.694 0 
91 1 0.375891 79.5 10.1188 15.7664 0 
14 1 0.378044 79.5 10.5272 15.8057 0 
20 1 0.418644 79.5 10.9545 15.7157 0 
86 1 0.418347 79.5 11.4297 15.6246 0 
239 1 0.376202 79.5 11.8789 15.7193 0 
81 1 0.377631 79.5 12.343 15.6682 0 
295 1 0.376364 79.5 12.8311 15.6134 0 
66 1 0.417743 79.5 14.3001 15.9959 0 
61 1 0.416969 79.5 5.01062 16.1111 0 
180 1 0.4178 79.5 5.65136 16.0246 0 
147 1 0.378206 79.5 6.18801 16.094 0 
85 1 0.378114 79.5 6.63429 16.2739 0 
111 1 0.377387 79.5 7.1185 16.2195 0 
273 1 0.375407 79.5 7.57185 16.1844 0 
113 1 0.376209 79.5 8.0304 16.1343 0 
44 1 0.376441 79.5 8.49072 16.1061 0 
36 1 0.41802 79.5 8.94956 16.1065 0 
247 1 0.417974 79.5 9.42677 16.1098 0 
259 1 0.416952 79.5 9.87509 16.1463 0 
234 1 0.376567 79.5 10.3225 16.1864 0 
18 1 0.417229 79.5 10.7671 16.1811 0 
144 1 0.417225 79.5 11.2157 16.1145 0 
72 1 0.418442 79.5 11.6645 16.1241 0 
149 1 0.420339 79.5 12.1468 16.1233 0 
110 1 0.376982 79.5 12.6205 16.0692 0 
6 1 0.41784 79.5 13.1351 16.0371 0 
205 1 0.417837 79.5 13.6949 16.0229 0 
264 1 0.375728 79.5 5.36699 16.554 0 
223 1 0.377582 79.5 5.89267 16.5634 0 
88 1 0.377633 79.5 6.37374 16.6574 0 
52 1 0.417492 79.5 6.91022 16.6595 0 
13 1 0.376492 79.5 7.38088 16.6331 0 
196 1 0.417674 79.5 7.82928 16.5817 0 
48 1 0.417895 79.5 8.30233 16.5139 0 
67 1 0.375259 79.5 8.75806 16.5081 0 
281 1 0.419313 79.5 9.21097 16.5102 0 
93 1 0.375858 79.5 9.64996 16.5384 0 
53 1 0.418687 79.5 10.0957 16.5516 0 
207 1 0.375123 79.5 10.551 16.5672 0 
214 1 0.375802 79.5 10.9946 16.5539 0 
275 1 0.375236 79.5 11.4255 16.5294 0 
193 1 0.377638 79.5 11.8867 16.5319 0 
303 1 0.377701 79.5 12.3689 16.5211 0 
203 1 0.418748 79.5 12.8545 16.4812 0 
112 1 0.37724 79.5 13.3858 16.4755 0 
98 1 0.376685 79.5 13.9367 16.494 0 
256 1 0.417029 79.5 14.5427 16.5218 0 
257 1 0.417584 79.5 4.89073 16.9225 0 
100 1 0.41738 79.5 5.54477 17.0461 0 
7 1 0.376836 79.5 6.08978 17.0442 0 
54 1 0.417762 79.5 6.64965 17.0619 0 
25 1 0.418251 79.5 7.17512 17.0696 0 
124 1 0.377489 79.5 7.63287 17.0262 0 
175 1 0.375285 79.5 7.94289 17.2994 0 
64 1 0.37804 79.5 8.11069 16.9274 0 
162 1 0.417925 79.5 8.3815 17.3059 0 
197 1 0.418138 79.5 8.56165 16.9037 0 
170 1 0.419066 79.5 8.83333 17.304 0 
99 1 0.418162 79.5 9.0081 16.9077 0 
168 1 0.377281 79.5 9.25254 17.3215 0 
73 1 0.418056 79.5 9.44242 16.9273 0 
202 1 0.416907 79.5 9.66781 17.3231 0 
204 1 0.417908 79.5 9.87958 16.9368 0 
134 1 0.377548 79.5 10.0996 17.3099 0 
119 1 0.418318 79.5 10.3283 16.9361 0 
39 1 0.417739 79.5 10.5471 17.3015 0 
299 1 0.376562 79.5 10.7751 16.9275 0 
233 1 0.376541 79.5 10.9794 17.293 0 
46 1 0.377328 79.5 11.2017 16.9182 0 
10 1 0.377297 79.5 11.4045 17.2732 0 
278 1 0.377425 79.5 11.64 16.8972 0 
153 1 0.418903 79.5 11.8656 17.2634 0 
289 1 0.377045 79.5 12.1188 16.8973 0 
237 1 0.377021 79.5 12.3285 17.2832 0 
35 1 0.375085 79.5 12.5852 16.9054 0 
2 1 0.418632 79.5 12.799 17.3072 0 
291 1 0.418671 79.5 13.086 16.8991 0 
43 1 0.416658 79.5 13.6012 16.9198 0 
126 1 0.377564 79.5 14.1004 16.9723 0 
244 1 0.377185 79.5 14.5963 17.0624 0 
105 1 0.378261 79.5 15.1164 16.9106 0 
70 1 0.418537 79.5 4.52619 17.517 0 
254 1 0.418928 79.5 5.15535 17.4568 0 
136 1 0.377551 79.5 5.82479 17.4619 0 
232 1 0.41966 79.5 6.37185 17.4441 0 
294 1 0.420196 79.5 6.9217 17.4733 0 
152 1 0.419353 79.5 7.42461 17.4785 0 
189 1 0.374207 79.5 7.82817 17.6605 0 
201 1 0.37868 79.5 8.23674 17.6937 0 
224 1 0.417151 79.5 8.66008 17.6929 0 
143 1 0.378123 79.5 9.08 17.693 0 
228 1 0.377094 79.5 9.47456 17.7004 0 
125 1 0.417497 79.5 9.88815 17.6941 0 
40 1 0.417655 79.5 10.313 17.6661 0 
151 1 0.377236 79.5 10.7536 17.6563 0 
65 1 0.375901 79.5 11.1795 17.6438 0 
242 1 0.419369 79.5 11.614 17.6394 0 
269 1 0.377027 79.5 12.0756 17.6411 0 
23 1 0.377532 79.5 12.5236 17.6731 0 
240 1 0.417923 79.5 13.2941 17.3392 0 
115 1 0.377962 79.5 12.995 17.7193 0 
167 1 0.376423 79.5 13.7826 17.3882 0 
158 1 0.378408 79.5 14.2663 17.4556 0 
182 1 0.376421 79.5 14.8085 17.5253 0 
179 1 0.419049 79.5 15.3804 17.5004 0 
90 1 0.418215 79.5 4.87885 17.9958 0 
1 1 0.416656 79.5 5.50662 17.8524 0 
219 1 0.416465 79.5 6.11114 17.8466 0 
157 1 0.417922 79.5 6.6381 17.8534 0 
117 1 0.376414 79.5 7.12365 17.8821 0 
177 1 0.417786 79.5 7.55401 17.957 0 
97 1 0.377275 79.5 8.02024 18.0299 0 
132 1 0.378247 79.5 8.46263 18.0539 0 
222 1 0.376423 79.5 8.88755 18.0537 0 
51 1 0.378133 79.5 9.28991 18.0571 0 
108 1 0.37715 79.5 9.68577 18.0589 0 
280 1 0.376116 79.5 10.0945 18.0472 0 
102 1 0.419434 79.5 10.526 18.0242 0 
198 1 0.418579 79.5 10.9616 18.0061 0 
181 1 0.377496 79.5 11.3837 18.007 0 
268 1 0.418081 79.5 11.83 18.0115 0 
31 1 0.376295 79.5 12.2609 18.0108 0 
80 1 0.376209 79.5 12.7207 18.0521 0 
208 1 0.376279 79.5 13.1788 18.1278 0 
297 1 0.418019 79.5 13.4779 17.7846 0 
130 1 0.41741 79.5 13.9643 17.861 0 
191 1 0.419678 79.5 14.4712 17.9328 0 
286 1 0.417076 79.5 15.0201 18.0357 0 
173 1 0.377039 79.5 15.5932 18.1095 0 
84 1 0.417941 79.5 4.3363 18.3224 0 
298 1 0.374614 79.5 4.82513 18.6235 0 
265 1 0.4186 79.5 5.28785 18.34 0 
263 1 0.375892 79.5 5.66151 18.6653 0 
183 1 0.418934 79.5 5.84276 18.2386 0 
4 1 0.418796 79.5 6.13779 18.6571 0 
217 1 0.420187 79.5 6.38026 18.2586 0 
186 1 0.417704 79.5 6.86529 18.2711 0 
210 1 0.417016 79.5 7.32301 18.3239 0 
42 1 0.418538 79.5 7.77768 18.3681 0 
213 1 0.418946 79.5 8.23303 18.3914 0 
75 1 0.376447 79.5 8.6832 18.3935 0 
261 1 0.377169 79.5 9.09265 18.4021 0 
287 1 0.378509 79.5 9.49109 18.4097 0 
68 1 0.37735 79.5 9.88346 18.3964 0 
178 1 0.415965 79.5 10.3055 18.3848 0 
106 1 0.418321 79.5 10.737 18.386 0 
229 1 0.41843 79.5 11.1552 18.382 0 
190 1 0.417687 79.5 11.5835 18.3754 0 
22 1 0.376996 79.5 12.0075 18.3923 0 
255 1 0.419607 79.5 12.4382 18.3844 0 
274 1 0.37582 79.5 12.8984 18.4462 0 
241 1 0.375449 79.5 13.654 18.2326 0 
79 1 0.376387 79.5 13.3482 18.5395 0 
185 1 0.37559 79.5 14.1236 18.3302 0 
107 1 0.375813 79.5 14.6197 18.406 0 
176 1 0.376448 79.5 15.2063 18.5493 0 
258 1 0.419432 79.5 4.43415 19.0327 0 
212 1 0.41762 79.5 5.26249 18.9031 0 
260 1 0.417822 79.5 5.86107 19.0792 0 
243 1 0.376024 79.5 6.63092 18.6681 0 
200 1 0.417021 79.5 6.37749 19.0545 0 
188 1 0.417316 79.5 7.09319 18.6928 0 
166 1 0.418977 79.5 6.86532 19.0734 0 
122 1 0.41785 79.5 7.3355 19.0802 0 
245 1 0.376779 79.5 7.55886 18.7208 0 
129 1 0.417621 79.5 7.78706 19.0937 0 
163 1 0.376966 79.5 8.00415 18.7394 0 
218 1 0.418811 79.5 8.23687 19.0944 0 
184 1 0.417741 79.5 8.46083 18.7422 0 
59 1 0.419658 79.5 8.88665 18.7593 0 
140 1 0.378892 79.5 9.28578 18.7504 0 
69 1 0.376926 79.5 9.67868 18.7516 0 
94 1 0.419162 79.5 9.46558 19.1049 0 
92 1 0.417624 79.5 10.0863 18.7378 0 
276 1 0.417911 79.5 9.88105 19.1 0 
262 1 0.418034 79.5 10.5215 18.7437 0 
192 1 0.418338 79.5 10.3005 19.0947 0 
230 1 0.376846 79.5 10.9265 18.7517 0 
216 1 0.376432 79.5 10.7126 19.1036 0 
58 1 0.415805 79.5 11.348 18.7513 0 
209 1 0.419672 79.5 11.1187 19.1048 0 
155 1 0.37768 79.5 11.7607 18.7476 0 
127 1 0.417806 79.5 11.9445 19.1091 0 
9 1 0.378113 79.5 12.1773 18.7545 0 
164 1 0.419166 79.5 12.6104 18.7765 0 
272 1 0.378957 79.5 13.0567 18.8505 0 
29 1 0.417393 79.5 13.4512 19.0037 0 
24 1 0.416559 79.5 13.8055 18.7003 0 
160 1 0.418475 79.5 14.2844 18.8053 0 
165 1 0.417616 79.5 14.7963 18.864 0 
30 1 0.376677 79.5 15.3949 19.0757 0 
146 1 0.418691 79.5 15.8226 18.7038 0 
169 1 0.378453 79.5 4.95561 19.2746 0 
120 1 0.378184 79.5 5.4903 19.3544 0 
148 1 0.418606 79.5 6.12255 19.464 0 
199 1 0.417759 79.5 6.62545 19.445 0 
135 1 0.377153 79.5 7.1277 19.4468 0 
63 1 0.377654 79.5 7.56653 19.4519 0 
194 1 0.416887 79.5 8.03439 19.4583 0 
15 1 0.377305 79.5 8.45824 19.47 0 
118 1 0.41851 79.5 8.66677 19.1286 0 
12 1 0.37772 79.5 9.07114 19.1228 0 
38 1 0.377736 79.5 8.89546 19.4681 0 
27 1 0.375782 79.5 9.27736 19.4758 0 
296 1 0.418792 79.5 9.67306 19.4652 0 
121 1 0.418093 79.5 10.0941 19.4555 0 
47 1 0.418289 79.5 10.5111 19.4514 0 
293 1 0.417075 79.5 10.9219 19.4721 0 
41 1 0.375472 79.5 11.5279 19.1133 0 
283 1 0.377483 79.5 11.3185 19.4699 0 
26 1 0.417817 79.5 11.7215 19.4733 0 
11 1 0.377588 79.5 12.1458 19.4774 0 
302 1 0.377055 79.5 12.3631 19.1288 0 
49 1 0.419815 79.5 12.5916 19.4909 0 
101 1 0.376457 79.5 12.7958 19.1476 0 
17 1 0.37517 79.5 13.0983 19.3919 0 
221 1 0.419252 79.5 13.5513 19.4267 0 
174 1 0.419338 79.5 13.961 19.2057 0 
266 1 0.376034 79.5 14.4389 19.2794 0 
171 1 0.417726 79.5 14.9513 19.3326 0 
238 1 0.417818 79.5 15.8641 19.4778 0 
50 1 0.378881 79.5 4.13003 19.5605 0 
123 1 0.416947 79.5 4.67716 19.6907 0 
71 1 0.377916 79.5 5.22952 19.7397 0 
21 1 0.420824 79.5 5.76657 19.7593 0 
33 1 0.378072 79.5 6.38624 19.8115 0 
161 1 0.416955 79.5 6.89177 19.7948 0 
252 1 0.378093 79.5 7.3529 19.8115 0 
301 1 0.41979 79.5 7.79626 19.7991 0 
32 1 0.375477 79.5 8.25045 19.8169 0 
145 1 0.419666 79.5 8.67969 19.8013 0 
87 1 0.377593 79.5 9.09951 19.8181 0 
8 1 0.378024 79.5 9.48997 19.819 0 
253 1 0.415824 79.5 9.89209 19.8139 0 
133 1 0.418748 79.5 10.309 19.8109 0 
284 1 0.376238 79.5 10.7079 19.8189 0 
285 1 0.37676 79.5 11.1078 19.8206 0 
89 1 0.376485 79.5 11.5027 19.8186 0 
220 1 0.375738 79.5 11.923 19.8184 0 
288 1 0.377512 79.5 12.3483 19.8175 0 
114 1 0.376368 79.5 12.8273 19.8125 0 
45 1 0.41618 79.5 13.2636 19.7923 0 
3 1 0.376593 79.5 13.7411 19.8011 0 
282 1 0.416306 79.5 14.174 19.7 0 
83 1 0.419111 79.5 14.6755 19.7432 0 
267 1 0.418107 79.5 15.3136 19.6982 0 
