# LAMMPS data file for rigid bodies

303 atoms

1 atom types

0.0 	 20.0 	 xlo xhi 
0.0 	 20.0 	 ylo yhi 
-1.0 	 1.0 	 zlo zhi 

Atoms

141 1 0.417537 79.5 8.79559 13.5557 0 
154 1 0.377463 79.5 9.43428 13.5519 0 
248 1 0.417624 79.5 10.0844 13.5111 0 
142 1 0.376502 79.5 10.73 13.6394 0 
116 1 0.418074 79.5 7.93343 14.0872 0 
156 1 0.41736 79.5 8.53854 14.0934 0 
137 1 0.377547 79.5 9.12773 14.0695 0 
290 1 0.417552 79.5 9.7232 14.0363 0 
215 1 0.417318 79.5 10.3155 14.0631 0 
77 1 0.416408 79.5 10.9373 14.1804 0 
159 1 0.418141 79.5 11.3869 13.7859 0 
82 1 0.37548 79.5 11.9712 14.0323 0 
187 1 0.376835 79.5 6.82599 14.5116 0 
34 1 0.376733 79.5 7.37848 14.3085 0 
271 1 0.419038 79.5 8.2631 14.5913 0 
172 1 0.377906 79.5 8.85389 14.5454 0 
235 1 0.417949 79.5 9.41806 14.5104 0 
206 1 0.377502 79.5 9.95806 14.5099 0 
138 1 0.417163 79.5 10.5258 14.5507 0 
28 1 0.376324 79.5 11.5201 14.3789 0 
5 1 0.417956 79.5 12.0581 14.6125 0 
139 1 0.377813 79.5 12.5338 14.2897 0 
95 1 0.378511 79.5 13.0591 14.5749 0 
292 1 0.419322 79.5 6.21766 14.6808 0 
211 1 0.376915 79.5 6.6167 15.0979 0 
76 1 0.376361 79.5 7.1962 14.9015 0 
78 1 0.376793 79.5 7.72225 14.7259 0 
300 1 0.417817 79.5 8.60123 15.0057 0 
227 1 0.419731 79.5 9.14685 14.9681 0 
55 1 0.377258 79.5 9.65602 14.9531 0 
225 1 0.418808 79.5 10.1729 14.9466 0 
246 1 0.419558 79.5 10.7086 15.0276 0 
104 1 0.417492 79.5 11.1061 14.7013 0 
60 1 0.378985 79.5 11.6257 14.9067 0 
195 1 0.376076 79.5 12.5654 14.8801 0 
19 1 0.377048 79.5 13.628 14.8729 0 
279 1 0.419009 79.5 5.97288 15.2712 0 
251 1 0.418401 79.5 7.01195 15.4291 0 
56 1 0.417661 79.5 7.54815 15.2772 0 
231 1 0.418206 79.5 8.06229 15.115 0 
128 1 0.417636 79.5 8.38995 15.4924 0 
74 1 0.418792 79.5 8.90487 15.4149 0 
37 1 0.376521 79.5 9.40551 15.3903 0 
250 1 0.419005 79.5 9.88176 15.3751 0 
96 1 0.375974 79.5 10.3647 15.3772 0 
109 1 0.416555 79.5 10.8687 15.4874 0 
131 1 0.37743 79.5 11.2366 15.193 0 
86 1 0.418347 79.5 11.7019 15.4148 0 
81 1 0.377631 79.5 12.1231 15.1517 0 
57 1 0.417312 79.5 12.5979 15.4204 0 
16 1 0.418857 79.5 13.0808 15.1534 0 
205 1 0.417837 79.5 13.5866 15.4447 0 
61 1 0.416969 79.5 5.87081 15.8461 0 
103 1 0.376732 79.5 6.44069 15.6244 0 
150 1 0.42017 79.5 6.85617 15.9402 0 
249 1 0.37714 79.5 7.37306 15.7756 0 
91 1 0.375891 79.5 7.89109 15.6228 0 
36 1 0.41802 79.5 8.21622 15.97 0 
247 1 0.417974 79.5 8.70094 15.8703 0 
226 1 0.418002 79.5 9.18617 15.817 0 
14 1 0.378044 79.5 9.64377 15.7998 0 
144 1 0.417225 79.5 10.0938 15.8065 0 
270 1 0.377661 79.5 10.5296 15.773 0 
149 1 0.420339 79.5 11.3004 15.6986 0 
239 1 0.376202 79.5 11.7354 15.9215 0 
6 1 0.41784 79.5 12.1503 15.6756 0 
295 1 0.376364 79.5 12.5835 15.9386 0 
112 1 0.37724 79.5 13.0514 15.6998 0 
256 1 0.417029 79.5 13.5178 15.9882 0 
277 1 0.378085 79.5 14.0736 15.7424 0 
264 1 0.375728 79.5 5.28659 16.0565 0 
257 1 0.417584 79.5 5.75857 16.4 0 
147 1 0.378206 79.5 6.33608 16.1454 0 
223 1 0.377582 79.5 6.74937 16.4282 0 
111 1 0.377387 79.5 7.23379 16.259 0 
62 1 0.419478 79.5 7.71978 16.0879 0 
273 1 0.375407 79.5 8.05231 16.4082 0 
113 1 0.376209 79.5 8.53304 16.3078 0 
48 1 0.417895 79.5 8.98655 16.2541 0 
259 1 0.416952 79.5 9.46282 16.2152 0 
234 1 0.376567 79.5 9.90917 16.2046 0 
20 1 0.418644 79.5 10.4116 16.1893 0 
72 1 0.418442 79.5 10.8994 16.0058 0 
93 1 0.375858 79.5 10.9441 16.4308 0 
193 1 0.377638 79.5 11.3388 16.1564 0 
275 1 0.375236 79.5 11.7468 16.3716 0 
303 1 0.377701 79.5 12.154 16.1662 0 
110 1 0.376982 79.5 12.557 16.4146 0 
203 1 0.418748 79.5 13.0134 16.2042 0 
98 1 0.376685 79.5 13.9531 16.3015 0 
236 1 0.417091 79.5 14.5383 16.1129 0 
70 1 0.418537 79.5 5.20036 16.6727 0 
180 1 0.4178 79.5 6.23075 16.6484 0 
124 1 0.377489 79.5 7.12486 16.7221 0 
85 1 0.378114 79.5 7.5882 16.5442 0 
13 1 0.376492 79.5 7.92131 16.8337 0 
52 1 0.417492 79.5 8.37169 16.7134 0 
64 1 0.37804 79.5 8.81048 16.6763 0 
281 1 0.419313 79.5 9.25504 16.6296 0 
67 1 0.375259 79.5 9.69638 16.6016 0 
53 1 0.418687 79.5 10.1368 16.5708 0 
134 1 0.377548 79.5 10.576 16.5779 0 
73 1 0.418056 79.5 10.8821 16.8881 0 
18 1 0.417229 79.5 11.3352 16.5935 0 
214 1 0.375802 79.5 11.7377 16.8058 0 
289 1 0.377045 79.5 12.1372 16.6243 0 
2 1 0.418632 79.5 12.5385 16.885 0 
35 1 0.375085 79.5 12.9663 16.6865 0 
126 1 0.377564 79.5 13.437 16.4934 0 
43 1 0.416658 79.5 13.8462 16.8169 0 
105 1 0.378261 79.5 14.3647 16.6673 0 
66 1 0.417743 79.5 15.0064 16.5796 0 
90 1 0.418215 79.5 4.66505 17.0218 0 
254 1 0.418928 79.5 5.20321 17.2888 0 
100 1 0.41738 79.5 5.7146 16.9521 0 
7 1 0.376836 79.5 6.18868 17.1493 0 
54 1 0.417762 79.5 6.67011 16.9043 0 
136 1 0.377551 79.5 7.06072 17.2074 0 
162 1 0.417925 79.5 7.48854 16.9978 0 
170 1 0.419066 79.5 7.86295 17.2941 0 
44 1 0.376441 79.5 8.24066 17.124 0 
168 1 0.377281 79.5 8.63232 17.0844 0 
202 1 0.416907 79.5 9.05943 17.0444 0 
204 1 0.417908 79.5 9.50347 17.0059 0 
99 1 0.418162 79.5 9.94037 16.9744 0 
125 1 0.417497 79.5 10.3963 16.9534 0 
106 1 0.418321 79.5 10.5817 17.3277 0 
39 1 0.417739 79.5 10.9982 17.3081 0 
207 1 0.375123 79.5 11.3261 17.0005 0 
153 1 0.418903 79.5 11.7601 17.2288 0 
278 1 0.377425 79.5 12.1446 17.0733 0 
23 1 0.377532 79.5 12.8898 17.1611 0 
291 1 0.418671 79.5 13.3507 16.9766 0 
167 1 0.376423 79.5 13.723 17.316 0 
158 1 0.378408 79.5 14.2137 17.1833 0 
244 1 0.377185 79.5 14.7295 17.0735 0 
265 1 0.4186 79.5 4.63103 17.6634 0 
88 1 0.377633 79.5 5.69987 17.4659 0 
1 1 0.416656 79.5 6.16012 17.6315 0 
25 1 0.418251 79.5 6.62712 17.3813 0 
175 1 0.375285 79.5 7.04232 17.6901 0 
196 1 0.417674 79.5 7.43997 17.4643 0 
197 1 0.418138 79.5 7.87712 17.7284 0 
152 1 0.419353 79.5 8.33331 17.5257 0 
224 1 0.417151 79.5 8.83693 17.438 0 
143 1 0.378123 79.5 9.30886 17.39 0 
222 1 0.376423 79.5 9.13008 17.7347 0 
51 1 0.378133 79.5 9.72988 17.3706 0 
132 1 0.378247 79.5 9.5549 17.7255 0 
40 1 0.417655 79.5 10.1516 17.353 0 
280 1 0.376116 79.5 9.96635 17.7221 0 
228 1 0.377094 79.5 10.3891 17.7051 0 
151 1 0.377236 79.5 10.807 17.6893 0 
299 1 0.376562 79.5 11.3867 17.3899 0 
46 1 0.377328 79.5 11.2012 17.7286 0 
119 1 0.418318 79.5 11.6625 17.6842 0 
269 1 0.377027 79.5 12.0699 17.5476 0 
237 1 0.377021 79.5 12.4525 17.3792 0 
10 1 0.377297 79.5 12.8029 17.5915 0 
240 1 0.417923 79.5 13.2581 17.4555 0 
297 1 0.418019 79.5 14.0737 17.6677 0 
182 1 0.376421 79.5 14.598 17.5633 0 
179 1 0.419049 79.5 15.2245 17.38 0 
263 1 0.375892 79.5 5.20241 17.8329 0 
219 1 0.416465 79.5 5.69043 17.9663 0 
183 1 0.418934 79.5 6.16407 18.1187 0 
232 1 0.41966 79.5 6.62033 17.8405 0 
157 1 0.417922 79.5 7.04765 18.1786 0 
294 1 0.420196 79.5 7.45086 17.9084 0 
210 1 0.417016 79.5 7.85761 18.1858 0 
189 1 0.374207 79.5 8.23193 17.9532 0 
177 1 0.417786 79.5 8.6578 17.8196 0 
97 1 0.377275 79.5 8.52864 18.2112 0 
201 1 0.37868 79.5 8.96795 18.0824 0 
213 1 0.418946 79.5 9.37301 18.0845 0 
262 1 0.418034 79.5 9.78992 18.0923 0 
102 1 0.419434 79.5 10.2072 18.0708 0 
198 1 0.418579 79.5 10.6356 18.049 0 
65 1 0.375901 79.5 11.0353 18.0735 0 
233 1 0.376541 79.5 11.4585 18.0427 0 
181 1 0.377496 79.5 11.9163 17.9936 0 
242 1 0.419369 79.5 12.3415 17.8814 0 
31 1 0.376295 79.5 12.7452 17.9903 0 
80 1 0.376209 79.5 13.1583 17.8996 0 
115 1 0.377962 79.5 13.6 17.7909 0 
185 1 0.37559 79.5 13.8989 18.1418 0 
130 1 0.41741 79.5 14.4144 18.0446 0 
286 1 0.417076 79.5 14.9871 17.941 0 
173 1 0.377039 79.5 15.5762 17.95 0 
258 1 0.419432 79.5 4.39259 18.6556 0 
84 1 0.417941 79.5 4.79883 18.2268 0 
298 1 0.374614 79.5 5.34207 18.3572 0 
4 1 0.418796 79.5 5.83611 18.481 0 
243 1 0.376024 79.5 6.30855 18.615 0 
217 1 0.420187 79.5 6.60128 18.2829 0 
42 1 0.418538 79.5 6.81748 18.6609 0 
117 1 0.376414 79.5 7.46531 18.3255 0 
188 1 0.417316 79.5 7.74176 18.6503 0 
75 1 0.376447 79.5 8.20274 18.3996 0 
108 1 0.37715 79.5 8.83027 18.4318 0 
140 1 0.378892 79.5 9.21775 18.4501 0 
261 1 0.377169 79.5 9.61106 18.4537 0 
287 1 0.378509 79.5 10.0147 18.4428 0 
178 1 0.415965 79.5 10.4412 18.4168 0 
22 1 0.376996 79.5 10.8487 18.4249 0 
268 1 0.418081 79.5 11.2645 18.4107 0 
164 1 0.419166 79.5 11.7012 18.3754 0 
255 1 0.419607 79.5 12.1393 18.3383 0 
272 1 0.378957 79.5 12.5532 18.3409 0 
208 1 0.376279 79.5 12.9997 18.326 0 
79 1 0.376387 79.5 13.2482 18.6624 0 
241 1 0.375449 79.5 13.4362 18.2339 0 
24 1 0.416559 79.5 13.7083 18.5934 0 
160 1 0.418475 79.5 14.2062 18.5147 0 
191 1 0.419678 79.5 14.7449 18.4429 0 
107 1 0.375813 79.5 15.2995 18.4486 0 
212 1 0.41762 79.5 4.99931 18.7642 0 
260 1 0.417822 79.5 5.52625 18.868 0 
148 1 0.418606 79.5 6.02336 18.9668 0 
200 1 0.417021 79.5 6.53759 19.021 0 
245 1 0.376779 79.5 7.01771 19.0597 0 
186 1 0.417704 79.5 7.25205 18.6682 0 
166 1 0.418977 79.5 7.47525 19.0429 0 
129 1 0.417621 79.5 7.90125 19.0951 0 
163 1 0.376966 79.5 8.13549 18.7686 0 
184 1 0.417741 79.5 8.36266 19.1014 0 
59 1 0.419658 79.5 8.5497 18.7138 0 
94 1 0.419162 79.5 8.99456 18.7895 0 
68 1 0.37735 79.5 9.41097 18.785 0 
69 1 0.376926 79.5 9.81839 18.782 0 
58 1 0.415805 79.5 10.2374 18.7754 0 
192 1 0.418338 79.5 10.6536 18.7811 0 
92 1 0.417624 79.5 11.0699 18.7864 0 
229 1 0.41843 79.5 11.4942 18.7729 0 
9 1 0.378113 79.5 11.9081 18.736 0 
190 1 0.417687 79.5 12.1055 19.0926 0 
29 1 0.417393 79.5 12.3452 18.7281 0 
274 1 0.37582 79.5 12.785 18.6959 0 
101 1 0.376457 79.5 12.5793 19.079 0 
221 1 0.419252 79.5 13.029 19.0505 0 
266 1 0.376034 79.5 13.497 19.0226 0 
282 1 0.416306 79.5 13.9831 18.9781 0 
174 1 0.419338 79.5 14.4947 18.9246 0 
176 1 0.376448 79.5 15.0061 18.8829 0 
146 1 0.418691 79.5 15.784 18.7841 0 
169 1 0.378453 79.5 4.13526 19.2075 0 
71 1 0.377916 79.5 4.72355 19.2123 0 
199 1 0.417759 79.5 5.26388 19.2876 0 
135 1 0.377153 79.5 5.7685 19.3584 0 
122 1 0.41785 79.5 6.26405 19.3916 0 
252 1 0.378093 79.5 6.77087 19.4094 0 
161 1 0.416955 79.5 7.24628 19.4293 0 
63 1 0.377654 79.5 7.67836 19.4483 0 
218 1 0.418811 79.5 8.13941 19.4547 0 
15 1 0.377305 79.5 8.55975 19.4759 0 
118 1 0.41851 79.5 8.77761 19.1442 0 
296 1 0.418792 79.5 9.2025 19.1481 0 
87 1 0.377593 79.5 9.01012 19.4907 0 
121 1 0.418093 79.5 9.61314 19.1251 0 
12 1 0.37772 79.5 9.41577 19.4941 0 
293 1 0.417075 79.5 9.81542 19.484 0 
276 1 0.417911 79.5 10.0272 19.1264 0 
216 1 0.376432 79.5 10.4592 19.1259 0 
47 1 0.418289 79.5 10.2589 19.4645 0 
284 1 0.376238 79.5 10.6675 19.4637 0 
283 1 0.377483 79.5 10.8581 19.138 0 
89 1 0.376485 79.5 11.0577 19.4783 0 
230 1 0.376846 79.5 11.2624 19.1378 0 
41 1 0.375472 79.5 11.4594 19.4652 0 
155 1 0.37768 79.5 11.678 19.1256 0 
302 1 0.377055 79.5 11.8916 19.4515 0 
127 1 0.417806 79.5 12.353 19.433 0 
17 1 0.37517 79.5 12.8106 19.4341 0 
165 1 0.417616 79.5 13.2709 19.431 0 
45 1 0.41618 79.5 13.7512 19.4045 0 
171 1 0.417726 79.5 14.2602 19.381 0 
30 1 0.376677 79.5 14.7776 19.3374 0 
238 1 0.417818 79.5 15.3791 19.2226 0 
50 1 0.378881 79.5 4.44352 19.6781 0 
123 1 0.416947 79.5 4.99267 19.7154 0 
120 1 0.378184 79.5 5.52502 19.7507 0 
33 1 0.378072 79.5 6.0151 19.776 0 
21 1 0.420824 79.5 6.51734 19.7831 0 
194 1 0.416887 79.5 7.00195 19.7931 0 
32 1 0.375477 79.5 7.46333 19.8129 0 
301 1 0.41979 79.5 7.9026 19.7987 0 
38 1 0.377736 79.5 8.34968 19.8166 0 
145 1 0.419666 79.5 8.77784 19.8067 0 
27 1 0.375782 79.5 9.21386 19.8205 0 
8 1 0.378024 79.5 9.61484 19.8246 0 
253 1 0.415824 79.5 10.049 19.8172 0 
133 1 0.418748 79.5 10.4789 19.8113 0 
285 1 0.37676 79.5 10.8747 19.8177 0 
11 1 0.377588 79.5 11.2618 19.8167 0 
209 1 0.419672 79.5 11.678 19.7987 0 
49 1 0.419815 79.5 12.1225 19.7964 0 
26 1 0.417817 79.5 12.5857 19.7957 0 
288 1 0.377512 79.5 13.0373 19.8061 0 
114 1 0.376368 79.5 13.511 19.8011 0 
3 1 0.376593 79.5 14.0039 19.7847 0 
220 1 0.375738 79.5 14.5339 19.7637 0 
267 1 0.418107 79.5 15.1103 19.711 0 
83 1 0.419111 79.5 15.7728 19.625 0 
