# LAMMPS data file for rigid bodies

303 atoms

1 atom types

0.0 	 20.0 	 xlo xhi 
0.0 	 20.0 	 ylo yhi 
-1.0 	 1.0 	 zlo zhi 

Atoms

248 1 0.417624 79.5 9.34207 13.4377 0 
5 1 0.417956 79.5 10.2937 13.7344 0 
142 1 0.376502 79.5 10.8755 13.7735 0 
156 1 0.41736 79.5 7.39956 14.1894 0 
141 1 0.417537 79.5 8.02943 13.9976 0 
154 1 0.377463 79.5 8.6364 13.9287 0 
137 1 0.377547 79.5 9.17404 13.9985 0 
290 1 0.417552 79.5 9.74313 13.9064 0 
159 1 0.418141 79.5 11.5067 13.7884 0 
82 1 0.37548 79.5 12.1263 14.1923 0 
139 1 0.377813 79.5 12.7463 14.1927 0 
78 1 0.376793 79.5 7.83956 14.5807 0 
271 1 0.419038 79.5 8.41244 14.4686 0 
172 1 0.377906 79.5 8.95998 14.4729 0 
235 1 0.417949 79.5 9.49538 14.4375 0 
206 1 0.377502 79.5 10.0104 14.3848 0 
138 1 0.417163 79.5 10.523 14.2873 0 
77 1 0.416408 79.5 11.0763 14.3029 0 
28 1 0.376324 79.5 11.602 14.3498 0 
211 1 0.376915 79.5 6.59402 14.8001 0 
187 1 0.376835 79.5 7.19792 14.7269 0 
56 1 0.417661 79.5 7.66337 15.0883 0 
300 1 0.417817 79.5 8.20649 14.9849 0 
227 1 0.419731 79.5 8.74428 14.9311 0 
55 1 0.377258 79.5 9.27058 14.9019 0 
37 1 0.376521 79.5 9.77004 14.8716 0 
215 1 0.417318 79.5 10.2884 14.8082 0 
246 1 0.419558 79.5 10.8138 14.7808 0 
131 1 0.37743 79.5 11.3454 14.7999 0 
6 1 0.41784 79.5 11.9238 14.7614 0 
104 1 0.417492 79.5 12.4876 14.6976 0 
95 1 0.378511 79.5 13.1313 14.6995 0 
292 1 0.419322 79.5 6.06118 15.3289 0 
34 1 0.376733 79.5 6.64293 15.348 0 
116 1 0.418074 79.5 7.1547 15.2583 0 
231 1 0.418206 79.5 8.01762 15.4848 0 
74 1 0.418792 79.5 8.53263 15.4025 0 
226 1 0.418002 79.5 9.0559 15.3478 0 
91 1 0.375891 79.5 9.54158 15.3065 0 
250 1 0.419005 79.5 10.0499 15.2721 0 
225 1 0.418808 79.5 10.5616 15.2456 0 
149 1 0.420339 79.5 11.0894 15.2344 0 
109 1 0.416555 79.5 11.6531 15.2096 0 
60 1 0.378985 79.5 12.2447 15.1783 0 
195 1 0.376076 79.5 12.8058 15.1433 0 
277 1 0.378085 79.5 13.4619 15.1726 0 
19 1 0.377048 79.5 14.0481 15.19 0 
61 1 0.416969 79.5 5.95955 15.9238 0 
279 1 0.419009 79.5 6.51491 15.8481 0 
76 1 0.376361 79.5 7.04402 15.7626 0 
249 1 0.37714 79.5 7.52912 15.6275 0 
150 1 0.42017 79.5 7.86993 15.9839 0 
36 1 0.41802 79.5 8.35002 15.8748 0 
128 1 0.417636 79.5 8.84749 15.791 0 
14 1 0.378044 79.5 9.33739 15.7447 0 
144 1 0.417225 79.5 9.80247 15.7002 0 
234 1 0.376567 79.5 10.2884 15.6849 0 
96 1 0.375974 79.5 10.7314 15.6745 0 
270 1 0.377661 79.5 11.1761 15.6825 0 
239 1 0.376202 79.5 11.608 15.6658 0 
81 1 0.377631 79.5 12.067 15.6033 0 
295 1 0.376364 79.5 12.5793 15.5856 0 
205 1 0.417837 79.5 13.1193 15.5775 0 
16 1 0.418857 79.5 13.812 15.7117 0 
236 1 0.417091 79.5 14.4754 15.7797 0 
70 1 0.418537 79.5 4.86429 16.4321 0 
264 1 0.375728 79.5 5.42569 16.1355 0 
180 1 0.4178 79.5 6.40135 16.3642 0 
251 1 0.418401 79.5 6.91115 16.2449 0 
103 1 0.376732 79.5 7.39295 16.1145 0 
44 1 0.376441 79.5 8.19384 16.3441 0 
48 1 0.417895 79.5 8.65734 16.2406 0 
247 1 0.417974 79.5 9.14036 16.1663 0 
93 1 0.375858 79.5 9.59952 16.1273 0 
53 1 0.418687 79.5 10.0611 16.0939 0 
275 1 0.375236 79.5 10.5085 16.0906 0 
20 1 0.418644 79.5 10.9502 16.0857 0 
214 1 0.375802 79.5 11.4158 16.0827 0 
72 1 0.418442 79.5 11.8794 16.0532 0 
86 1 0.418347 79.5 12.3636 16.0167 0 
112 1 0.37724 79.5 12.8622 16.0306 0 
110 1 0.376982 79.5 12.5964 16.4284 0 
57 1 0.417312 79.5 13.3904 16.03 0 
256 1 0.417029 79.5 14.1064 16.2332 0 
66 1 0.417743 79.5 14.7334 16.4451 0 
257 1 0.417584 79.5 5.35342 16.7649 0 
100 1 0.41738 79.5 5.88278 16.4966 0 
88 1 0.377633 79.5 6.3344 16.8537 0 
223 1 0.377582 79.5 6.80713 16.7244 0 
147 1 0.378206 79.5 7.26826 16.5915 0 
62 1 0.419478 79.5 7.73041 16.4595 0 
273 1 0.375407 79.5 8.05104 16.7874 0 
52 1 0.417492 79.5 8.49633 16.6887 0 
196 1 0.417674 79.5 8.95504 16.6022 0 
259 1 0.416952 79.5 9.41605 16.543 0 
73 1 0.418056 79.5 9.86966 16.5113 0 
18 1 0.417229 79.5 10.321 16.5004 0 
134 1 0.377548 79.5 10.5602 16.875 0 
207 1 0.375123 79.5 10.7541 16.4935 0 
299 1 0.376562 79.5 10.9915 16.8627 0 
153 1 0.418903 79.5 11.2046 16.4781 0 
2 1 0.418632 79.5 11.4543 16.8586 0 
193 1 0.377638 79.5 11.6705 16.4661 0 
278 1 0.377425 79.5 11.9026 16.8488 0 
303 1 0.377701 79.5 12.1253 16.4506 0 
289 1 0.377045 79.5 12.3451 16.8272 0 
291 1 0.418671 79.5 12.8342 16.8184 0 
35 1 0.375085 79.5 13.117 16.4514 0 
203 1 0.418748 79.5 13.6395 16.482 0 
98 1 0.376685 79.5 14.2643 16.7567 0 
254 1 0.418928 79.5 4.78246 17.0947 0 
7 1 0.376836 79.5 5.30802 17.3245 0 
1 1 0.416656 79.5 5.83036 17.0285 0 
232 1 0.41966 79.5 6.25733 17.334 0 
54 1 0.417762 79.5 6.73052 17.1984 0 
111 1 0.377387 79.5 7.16836 17.0468 0 
85 1 0.378114 79.5 7.60388 16.9121 0 
136 1 0.377551 79.5 7.91988 17.2055 0 
13 1 0.376492 79.5 8.3519 17.1061 0 
113 1 0.376209 79.5 8.79853 17.0227 0 
197 1 0.418138 79.5 9.2342 16.9641 0 
281 1 0.419313 79.5 9.68832 16.9196 0 
99 1 0.418162 79.5 9.50528 17.324 0 
67 1 0.375259 79.5 10.1271 16.8969 0 
204 1 0.417908 79.5 9.93877 17.2953 0 
39 1 0.417739 79.5 10.3728 17.2592 0 
119 1 0.418318 79.5 10.8071 17.2482 0 
242 1 0.419369 79.5 11.2404 17.2443 0 
269 1 0.377027 79.5 11.6896 17.238 0 
10 1 0.377297 79.5 12.114 17.2281 0 
240 1 0.417923 79.5 12.5634 17.2154 0 
237 1 0.377021 79.5 13.0394 17.2238 0 
126 1 0.377564 79.5 13.3422 16.9023 0 
105 1 0.378261 79.5 13.8171 16.9384 0 
158 1 0.378408 79.5 14.1383 17.2988 0 
244 1 0.377185 79.5 14.6273 17.1389 0 
182 1 0.376421 79.5 15.1456 16.9416 0 
90 1 0.418215 79.5 4.27829 17.5982 0 
265 1 0.4186 79.5 4.85957 17.7119 0 
25 1 0.418251 79.5 5.76939 17.5436 0 
117 1 0.376414 79.5 6.65042 17.6658 0 
124 1 0.377489 79.5 7.08573 17.5282 0 
175 1 0.375285 79.5 7.48374 17.3502 0 
152 1 0.419353 79.5 7.80097 17.6417 0 
64 1 0.37804 79.5 8.21434 17.5125 0 
162 1 0.417925 79.5 8.65009 17.4195 0 
168 1 0.377281 79.5 9.0791 17.3662 0 
202 1 0.416907 79.5 8.9325 17.7642 0 
125 1 0.417497 79.5 9.35987 17.7187 0 
143 1 0.378123 79.5 9.7704 17.6883 0 
40 1 0.417655 79.5 10.1946 17.6585 0 
106 1 0.418321 79.5 10.6245 17.6407 0 
46 1 0.377328 79.5 11.0406 17.6339 0 
268 1 0.418081 79.5 11.4732 17.6172 0 
65 1 0.375901 79.5 11.9075 17.6111 0 
23 1 0.377532 79.5 12.3274 17.6101 0 
31 1 0.376295 79.5 12.7652 17.6028 0 
115 1 0.377962 79.5 13.2106 17.5996 0 
43 1 0.416658 79.5 13.6079 17.3712 0 
130 1 0.41741 79.5 13.9735 17.7633 0 
107 1 0.375813 79.5 14.502 17.6629 0 
286 1 0.417076 79.5 15.0536 17.5428 0 
263 1 0.375892 79.5 4.49815 18.1854 0 
219 1 0.416465 79.5 5.35851 17.8867 0 
157 1 0.417922 79.5 6.20473 17.8185 0 
243 1 0.376024 79.5 5.81986 18.0493 0 
186 1 0.417704 79.5 6.51276 18.1537 0 
217 1 0.420187 79.5 6.96578 17.9966 0 
294 1 0.420196 79.5 7.42037 17.8485 0 
189 1 0.374207 79.5 7.74779 18.204 0 
224 1 0.417151 79.5 8.07033 17.9691 0 
170 1 0.419066 79.5 8.48697 17.8303 0 
177 1 0.417786 79.5 8.76156 18.1562 0 
132 1 0.378247 79.5 9.20732 18.0937 0 
51 1 0.378133 79.5 9.60698 18.0681 0 
198 1 0.418579 79.5 10.0133 18.0352 0 
151 1 0.377236 79.5 10.4488 18.0085 0 
233 1 0.376541 79.5 10.8517 18.005 0 
102 1 0.419434 79.5 11.2603 18.0049 0 
255 1 0.419607 79.5 11.7016 17.9962 0 
181 1 0.377496 79.5 12.1285 17.9858 0 
208 1 0.376279 79.5 12.5578 17.9777 0 
185 1 0.37559 79.5 12.9967 17.9665 0 
167 1 0.376423 79.5 13.5131 17.8879 0 
191 1 0.419678 79.5 14.3185 18.1446 0 
173 1 0.377039 79.5 14.842 18.0813 0 
179 1 0.419049 79.5 15.4582 17.9874 0 
4 1 0.418796 79.5 4.08871 18.6615 0 
298 1 0.374614 79.5 5.03058 18.2948 0 
260 1 0.417822 79.5 5.52365 18.4267 0 
148 1 0.418606 79.5 6.03973 18.4541 0 
245 1 0.376779 79.5 6.46251 18.59 0 
200 1 0.417021 79.5 6.8861 18.4811 0 
42 1 0.418538 79.5 7.32778 18.2898 0 
201 1 0.37868 79.5 7.65131 18.6182 0 
210 1 0.417016 79.5 8.05024 18.5494 0 
188 1 0.417316 79.5 8.3583 18.2717 0 
222 1 0.376423 79.5 8.60113 18.5853 0 
213 1 0.418946 79.5 9.04575 18.4567 0 
280 1 0.376116 79.5 9.46186 18.4263 0 
228 1 0.377094 79.5 9.85045 18.4082 0 
262 1 0.418034 79.5 10.2716 18.364 0 
178 1 0.415965 79.5 10.6868 18.3711 0 
287 1 0.378509 79.5 11.0854 18.3816 0 
229 1 0.41843 79.5 11.4901 18.3884 0 
190 1 0.417687 79.5 11.9218 18.3789 0 
164 1 0.419166 79.5 12.3616 18.3606 0 
274 1 0.37582 79.5 12.8066 18.3417 0 
297 1 0.418019 79.5 13.2848 18.2897 0 
79 1 0.376387 79.5 13.5428 18.637 0 
241 1 0.375449 79.5 13.7821 18.2328 0 
24 1 0.416559 79.5 14.0735 18.578 0 
17 1 0.37517 79.5 14.6182 18.5729 0 
160 1 0.418475 79.5 15.1686 18.5249 0 
146 1 0.418691 79.5 15.7806 18.5794 0 
183 1 0.418934 79.5 4.70811 18.7228 0 
258 1 0.419432 79.5 5.23057 18.8385 0 
120 1 0.378184 79.5 5.73983 18.8808 0 
199 1 0.417759 79.5 6.20021 18.9522 0 
166 1 0.418977 79.5 6.69863 18.9553 0 
63 1 0.377654 79.5 7.10926 19.0676 0 
163 1 0.376966 79.5 7.24388 18.7049 0 
59 1 0.419658 79.5 7.5441 19.0311 0 
75 1 0.376447 79.5 7.9507 18.9733 0 
97 1 0.377275 79.5 8.3293 18.8674 0 
108 1 0.37715 79.5 8.89329 18.8211 0 
140 1 0.378892 79.5 9.2865 18.7725 0 
261 1 0.377169 79.5 9.68382 18.759 0 
94 1 0.419162 79.5 9.49267 19.1086 0 
92 1 0.417624 79.5 10.0939 18.7365 0 
121 1 0.418093 79.5 9.90712 19.1039 0 
68 1 0.37735 79.5 10.5 18.7317 0 
192 1 0.418338 79.5 10.3263 19.0887 0 
58 1 0.415805 79.5 10.9035 18.7438 0 
216 1 0.376432 79.5 10.7236 19.0952 0 
22 1 0.376996 79.5 11.3037 18.7581 0 
283 1 0.377483 79.5 11.5049 19.1085 0 
230 1 0.376846 79.5 11.1123 19.1104 0 
41 1 0.375472 79.5 11.7084 18.7509 0 
165 1 0.417616 79.5 11.9284 19.0978 0 
155 1 0.37768 79.5 12.1425 18.7353 0 
127 1 0.417806 79.5 12.3904 19.0723 0 
80 1 0.376209 79.5 12.6016 18.7099 0 
101 1 0.376457 79.5 12.8349 19.0554 0 
272 1 0.378957 79.5 13.0537 18.6845 0 
9 1 0.378113 79.5 13.3079 19.0176 0 
29 1 0.417393 79.5 13.8096 18.9847 0 
30 1 0.376677 79.5 14.331 18.9604 0 
238 1 0.417818 79.5 14.9317 19.0238 0 
176 1 0.376448 79.5 15.4667 19.0767 0 
212 1 0.41762 79.5 4.41519 19.1909 0 
33 1 0.378072 79.5 4.96042 19.2684 0 
71 1 0.377916 79.5 5.46697 19.2919 0 
135 1 0.377153 79.5 5.9372 19.3343 0 
252 1 0.378093 79.5 6.41011 19.3576 0 
122 1 0.41785 79.5 6.85347 19.4042 0 
301 1 0.41979 79.5 7.33555 19.4334 0 
129 1 0.417621 79.5 7.77504 19.4057 0 
184 1 0.417741 79.5 8.18608 19.3204 0 
118 1 0.41851 79.5 8.63597 19.1189 0 
15 1 0.377305 79.5 8.53706 19.4996 0 
27 1 0.375782 79.5 8.91201 19.463 0 
69 1 0.376926 79.5 9.09525 19.1366 0 
12 1 0.37772 79.5 9.30961 19.4594 0 
296 1 0.418792 79.5 9.70436 19.4672 0 
276 1 0.417911 79.5 10.1263 19.4543 0 
293 1 0.417075 79.5 10.5414 19.4459 0 
284 1 0.376238 79.5 10.9389 19.4519 0 
89 1 0.376485 79.5 11.3219 19.4644 0 
302 1 0.377055 79.5 11.7178 19.4548 0 
49 1 0.419815 79.5 12.1763 19.4479 0 
266 1 0.376034 79.5 12.6128 19.4361 0 
221 1 0.419252 79.5 13.0739 19.4047 0 
174 1 0.419338 79.5 13.5578 19.3918 0 
45 1 0.41618 79.5 14.0548 19.3795 0 
171 1 0.417726 79.5 14.5651 19.36 0 
84 1 0.417941 79.5 4.0444 19.6204 0 
169 1 0.378453 79.5 4.66448 19.7001 0 
50 1 0.378881 79.5 5.18051 19.723 0 
123 1 0.416947 79.5 5.66737 19.7437 0 
21 1 0.420824 79.5 6.15285 19.7576 0 
161 1 0.416955 79.5 6.61796 19.7874 0 
194 1 0.416887 79.5 7.08742 19.7943 0 
32 1 0.375477 79.5 7.53134 19.8127 0 
218 1 0.418811 79.5 7.94282 19.7912 0 
38 1 0.377736 79.5 8.33682 19.8161 0 
87 1 0.377593 79.5 8.73079 19.8214 0 
145 1 0.419666 79.5 9.1261 19.8055 0 
8 1 0.378024 79.5 9.52264 19.8208 0 
47 1 0.418289 79.5 9.92415 19.8143 0 
253 1 0.415824 79.5 10.3395 19.8087 0 
133 1 0.418748 79.5 10.7536 19.8033 0 
285 1 0.37676 79.5 11.1488 19.8163 0 
11 1 0.377588 79.5 11.5312 19.8151 0 
209 1 0.419672 79.5 11.9461 19.7981 0 
220 1 0.375738 79.5 12.3895 19.8135 0 
26 1 0.417817 79.5 12.8348 19.7935 0 
282 1 0.416306 79.5 13.3136 19.792 0 
288 1 0.377512 79.5 13.7918 19.7844 0 
114 1 0.376368 79.5 14.274 19.7768 0 
3 1 0.376593 79.5 14.7762 19.7631 0 
267 1 0.418107 79.5 15.2423 19.5949 0 
83 1 0.419111 79.5 15.8317 19.5668 0 
