# LAMMPS data file for rigid bodies

303 atoms

1 atom types

0.0 	 20.0 	 xlo xhi 
0.0 	 20.0 	 ylo yhi 
-1.0 	 1.0 	 zlo zhi 

Atoms

141 1 0.417537 79.5 8.49413 13.5992 0 
248 1 0.417624 79.5 9.47767 13.4387 0 
290 1 0.417552 79.5 10.0176 13.7565 0 
142 1 0.376502 79.5 10.5886 13.5348 0 
156 1 0.41736 79.5 7.87925 13.8794 0 
271 1 0.419038 79.5 8.50523 14.2198 0 
154 1 0.377463 79.5 9.01829 13.8584 0 
137 1 0.377547 79.5 9.52742 14.0361 0 
138 1 0.417163 79.5 10.4824 14.097 0 
5 1 0.417956 79.5 11.1558 13.7821 0 
82 1 0.37548 79.5 11.631 14.1315 0 
116 1 0.418074 79.5 6.83617 14.4453 0 
78 1 0.376793 79.5 7.42893 14.3938 0 
300 1 0.417817 79.5 7.99426 14.4464 0 
172 1 0.377906 79.5 9.02117 14.3863 0 
206 1 0.377502 79.5 9.5009 14.5206 0 
215 1 0.417318 79.5 9.99787 14.3793 0 
77 1 0.416408 79.5 10.505 14.654 0 
159 1 0.418141 79.5 10.9605 14.3327 0 
28 1 0.376324 79.5 11.3726 14.6048 0 
139 1 0.377813 79.5 12.2056 14.2294 0 
277 1 0.378085 79.5 12.795 14.3949 0 
187 1 0.376835 79.5 6.45764 14.9491 0 
76 1 0.376361 79.5 7.06682 14.9805 0 
56 1 0.417661 79.5 7.61091 14.9304 0 
227 1 0.419731 79.5 8.15573 14.9351 0 
235 1 0.417949 79.5 8.64883 14.7833 0 
37 1 0.376521 79.5 9.14013 14.876 0 
250 1 0.419005 79.5 9.62449 14.9729 0 
55 1 0.377258 79.5 10.0939 14.8868 0 
109 1 0.416555 79.5 10.9369 14.9158 0 
131 1 0.37743 79.5 11.4337 15.0766 0 
95 1 0.378511 79.5 11.8576 14.6722 0 
195 1 0.376076 79.5 12.3644 14.8011 0 
16 1 0.418857 79.5 12.9097 14.9603 0 
19 1 0.377048 79.5 13.4568 15.0513 0 
279 1 0.419009 79.5 5.96691 15.403 0 
211 1 0.376915 79.5 6.50754 15.4939 0 
249 1 0.37714 79.5 7.01468 15.4759 0 
103 1 0.376732 79.5 7.5082 15.4326 0 
150 1 0.42017 79.5 8.00428 15.4112 0 
74 1 0.418792 79.5 8.52632 15.3127 0 
226 1 0.418002 79.5 9.0269 15.3231 0 
91 1 0.375891 79.5 9.5043 15.4027 0 
225 1 0.418808 79.5 9.99906 15.3499 0 
246 1 0.419558 79.5 10.5022 15.2314 0 
270 1 0.377661 79.5 11.0422 15.3842 0 
86 1 0.418347 79.5 11.569 15.5316 0 
104 1 0.417492 79.5 11.9523 15.1766 0 
6 1 0.41784 79.5 12.4734 15.3286 0 
60 1 0.378985 79.5 12.9823 15.5044 0 
236 1 0.417091 79.5 14.0344 15.2899 0 
34 1 0.376733 79.5 5.5461 15.8105 0 
251 1 0.418401 79.5 6.74904 15.9436 0 
231 1 0.418206 79.5 7.29599 15.8953 0 
85 1 0.378114 79.5 7.79628 15.8494 0 
113 1 0.376209 79.5 8.30159 15.7906 0 
36 1 0.41802 79.5 8.76826 15.7559 0 
128 1 0.417636 79.5 9.2589 15.7723 0 
14 1 0.378044 79.5 9.76126 15.7695 0 
96 1 0.375974 79.5 10.2275 15.7393 0 
149 1 0.420339 79.5 10.6866 15.6964 0 
239 1 0.376202 79.5 11.1961 15.8115 0 
193 1 0.377638 79.5 11.7232 15.9688 0 
81 1 0.377631 79.5 12.0819 15.6627 0 
295 1 0.376364 79.5 12.5778 15.8262 0 
205 1 0.417837 79.5 13.5067 15.6282 0 
256 1 0.417029 79.5 14.0633 15.8932 0 
292 1 0.419322 79.5 5.58526 16.3581 0 
61 1 0.416969 79.5 6.15478 16.0215 0 
180 1 0.4178 79.5 6.56015 16.4206 0 
62 1 0.419478 79.5 7.08319 16.3536 0 
273 1 0.375407 79.5 7.59327 16.2777 0 
52 1 0.417492 79.5 8.08754 16.2135 0 
44 1 0.376441 79.5 8.55596 16.1871 0 
247 1 0.417974 79.5 9.01876 16.1722 0 
259 1 0.416952 79.5 9.51396 16.1614 0 
93 1 0.375858 79.5 9.97261 16.1442 0 
234 1 0.376567 79.5 10.4166 16.1248 0 
144 1 0.417225 79.5 10.874 16.1346 0 
20 1 0.418644 79.5 11.3609 16.2398 0 
289 1 0.377045 79.5 11.8207 16.4101 0 
72 1 0.418442 79.5 12.195 16.1322 0 
110 1 0.376982 79.5 12.6508 16.3049 0 
57 1 0.417312 79.5 13.0672 16.022 0 
98 1 0.376685 79.5 13.5619 16.1568 0 
66 1 0.417743 79.5 14.614 16.1813 0 
264 1 0.375728 79.5 5.10377 16.6702 0 
100 1 0.41738 79.5 6.06274 16.6164 0 
111 1 0.377387 79.5 6.92368 16.81 0 
13 1 0.376492 79.5 7.40747 16.6992 0 
162 1 0.417925 79.5 7.87736 16.6448 0 
196 1 0.417674 79.5 8.35289 16.6134 0 
48 1 0.417895 79.5 8.80304 16.5848 0 
53 1 0.418687 79.5 9.27383 16.5577 0 
67 1 0.375259 79.5 9.72291 16.5482 0 
73 1 0.418056 79.5 10.1589 16.5318 0 
18 1 0.417229 79.5 10.6027 16.5269 0 
275 1 0.375236 79.5 11.039 16.5532 0 
278 1 0.377425 79.5 11.4758 16.6791 0 
2 1 0.418632 79.5 11.8584 16.8703 0 
291 1 0.418671 79.5 12.2598 16.623 0 
303 1 0.377701 79.5 12.6977 16.7575 0 
112 1 0.37724 79.5 13.0981 16.5293 0 
203 1 0.418748 79.5 13.5666 16.6434 0 
105 1 0.378261 79.5 14.0583 16.4449 0 
43 1 0.416658 79.5 14.526 16.7867 0 
244 1 0.377185 79.5 15.0981 16.6957 0 
70 1 0.418537 79.5 4.55228 17.035 0 
257 1 0.417584 79.5 5.08969 17.2693 0 
54 1 0.417762 79.5 5.62134 16.9543 0 
1 1 0.416656 79.5 6.11359 17.2018 0 
147 1 0.378206 79.5 6.47652 16.9063 0 
223 1 0.377582 79.5 6.73253 17.2729 0 
88 1 0.377633 79.5 7.24296 17.1092 0 
232 1 0.41966 79.5 7.6969 17.0783 0 
170 1 0.419066 79.5 8.15867 17.0331 0 
64 1 0.37804 79.5 8.60754 17.0052 0 
281 1 0.419313 79.5 9.04862 16.9624 0 
204 1 0.417908 79.5 9.50104 16.9446 0 
228 1 0.377094 79.5 9.72257 17.33 0 
202 1 0.416907 79.5 9.93414 16.9354 0 
125 1 0.417497 79.5 10.1414 17.3207 0 
134 1 0.377548 79.5 10.3606 16.9217 0 
39 1 0.417739 79.5 10.5683 17.2935 0 
207 1 0.375123 79.5 10.7739 16.9191 0 
299 1 0.376562 79.5 10.9968 17.2885 0 
214 1 0.375802 79.5 11.1782 16.9412 0 
153 1 0.418903 79.5 11.4891 17.2122 0 
233 1 0.376541 79.5 11.9156 17.2852 0 
269 1 0.377027 79.5 12.2871 17.0972 0 
237 1 0.377021 79.5 12.7027 17.1757 0 
35 1 0.375085 79.5 13.122 17.024 0 
167 1 0.376423 79.5 13.5628 17.1071 0 
126 1 0.377564 79.5 14.016 16.9588 0 
158 1 0.378408 79.5 14.9475 17.2533 0 
90 1 0.418215 79.5 4.5717 17.7092 0 
7 1 0.376836 79.5 5.56618 17.474 0 
136 1 0.377551 79.5 5.98835 17.6568 0 
25 1 0.418251 79.5 6.4529 17.6483 0 
124 1 0.377489 79.5 7.10211 17.4942 0 
175 1 0.375285 79.5 7.54004 17.491 0 
152 1 0.419353 79.5 7.97697 17.4708 0 
197 1 0.418138 79.5 8.41232 17.4093 0 
143 1 0.378123 79.5 8.86537 17.3503 0 
177 1 0.417786 79.5 8.68653 17.7255 0 
99 1 0.418162 79.5 9.30071 17.3367 0 
132 1 0.378247 79.5 9.12077 17.7032 0 
222 1 0.376423 79.5 9.53868 17.6957 0 
51 1 0.378133 79.5 9.94103 17.6893 0 
151 1 0.377236 79.5 10.3668 17.6784 0 
40 1 0.417655 79.5 10.7889 17.6604 0 
119 1 0.418318 79.5 11.2425 17.6117 0 
46 1 0.377328 79.5 11.6636 17.6272 0 
181 1 0.377496 79.5 12.0816 17.6353 0 
10 1 0.377297 79.5 12.4729 17.5301 0 
23 1 0.377532 79.5 12.9581 17.5069 0 
115 1 0.377962 79.5 13.3879 17.5023 0 
208 1 0.376279 79.5 13.8816 17.4538 0 
297 1 0.418019 79.5 14.3865 17.3343 0 
130 1 0.41741 79.5 14.7139 17.7663 0 
182 1 0.376421 79.5 15.3071 17.7131 0 
254 1 0.418928 79.5 5.13953 17.8488 0 
219 1 0.416465 79.5 5.63777 18.0057 0 
183 1 0.418934 79.5 6.14505 18.0988 0 
294 1 0.420196 79.5 6.59995 18.1775 0 
117 1 0.376414 79.5 6.86866 17.8307 0 
217 1 0.420187 79.5 7.33794 17.8785 0 
224 1 0.417151 79.5 7.79601 17.8872 0 
168 1 0.377281 79.5 8.22045 17.8509 0 
97 1 0.377275 79.5 8.52031 18.0899 0 
210 1 0.417016 79.5 8.9425 18.0745 0 
213 1 0.418946 79.5 9.3612 18.0627 0 
287 1 0.378509 79.5 9.76018 18.0524 0 
198 1 0.418579 79.5 10.1707 18.0341 0 
280 1 0.376116 79.5 10.5892 18.0248 0 
268 1 0.418081 79.5 11.0213 18.0087 0 
164 1 0.419166 79.5 11.4517 18.0003 0 
65 1 0.375901 79.5 11.8717 18.0028 0 
242 1 0.419369 79.5 12.3063 17.9855 0 
240 1 0.417923 79.5 12.741 17.8988 0 
31 1 0.376295 79.5 13.2012 17.9065 0 
185 1 0.37559 79.5 13.667 17.8713 0 
241 1 0.375449 79.5 14.1778 17.8246 0 
84 1 0.417941 79.5 4.20262 18.27 0 
265 1 0.4186 79.5 4.81274 18.305 0 
263 1 0.375892 79.5 5.34592 18.4078 0 
4 1 0.418796 79.5 5.84287 18.4901 0 
243 1 0.376024 79.5 6.33204 18.5608 0 
200 1 0.417021 79.5 6.80471 18.6102 0 
157 1 0.417922 79.5 7.07846 18.2446 0 
42 1 0.418538 79.5 7.28635 18.6495 0 
188 1 0.417316 79.5 7.55749 18.2797 0 
189 1 0.374207 79.5 7.9906 18.272 0 
108 1 0.37715 79.5 8.33886 18.4177 0 
140 1 0.378892 79.5 8.75811 18.4285 0 
69 1 0.376926 79.5 9.16613 18.4272 0 
261 1 0.377169 79.5 9.56643 18.4192 0 
262 1 0.418034 79.5 9.96356 18.409 0 
106 1 0.418321 79.5 10.3944 18.3884 0 
102 1 0.419434 79.5 10.8131 18.3784 0 
229 1 0.41843 79.5 11.2411 18.3874 0 
190 1 0.417687 79.5 11.6663 18.3828 0 
272 1 0.378957 79.5 12.0851 18.3652 0 
80 1 0.376209 79.5 12.5252 18.3419 0 
255 1 0.419607 79.5 12.9652 18.2976 0 
274 1 0.37582 79.5 13.445 18.2791 0 
191 1 0.419678 79.5 13.9399 18.2567 0 
286 1 0.417076 79.5 14.4596 18.2532 0 
179 1 0.419049 79.5 15.0039 18.2334 0 
173 1 0.377039 79.5 15.5823 18.2675 0 
298 1 0.374614 79.5 4.4954 18.7894 0 
260 1 0.417822 79.5 5.06101 18.8235 0 
135 1 0.377153 79.5 5.56717 18.8944 0 
199 1 0.417759 79.5 6.05522 18.9421 0 
186 1 0.417704 79.5 6.54386 18.9868 0 
148 1 0.418606 79.5 7.02394 19.022 0 
163 1 0.376966 79.5 7.4678 19.0406 0 
201 1 0.37868 79.5 7.72712 18.6671 0 
129 1 0.417621 79.5 7.89139 19.0717 0 
75 1 0.376447 79.5 8.11533 18.7251 0 
59 1 0.419658 79.5 8.54263 18.7711 0 
118 1 0.41851 79.5 8.96474 18.7853 0 
94 1 0.419162 79.5 9.38156 18.7715 0 
68 1 0.37735 79.5 9.77914 18.7735 0 
276 1 0.417911 79.5 10.1954 18.7555 0 
192 1 0.418338 79.5 10.6125 18.752 0 
178 1 0.415965 79.5 11.0288 18.7524 0 
216 1 0.376432 79.5 10.8075 19.1058 0 
155 1 0.37768 79.5 11.4472 18.7549 0 
9 1 0.378113 79.5 11.857 18.7425 0 
22 1 0.376996 79.5 11.6387 19.1034 0 
29 1 0.417393 79.5 12.2986 18.7198 0 
127 1 0.417806 79.5 12.0649 19.093 0 
101 1 0.376457 79.5 12.7352 18.6987 0 
302 1 0.377055 79.5 12.509 19.0866 0 
24 1 0.416559 79.5 13.2034 18.6769 0 
165 1 0.417616 79.5 12.9476 19.0646 0 
221 1 0.419252 79.5 13.6901 18.68 0 
17 1 0.37517 79.5 13.4203 19.0581 0 
79 1 0.376387 79.5 14.182 18.6811 0 
266 1 0.376034 79.5 13.9225 19.0806 0 
30 1 0.376677 79.5 14.3885 19.1074 0 
107 1 0.375813 79.5 14.6813 18.7145 0 
160 1 0.418475 79.5 15.2046 18.7457 0 
146 1 0.418691 79.5 15.8324 18.8697 0 
258 1 0.419432 79.5 4.1099 19.2532 0 
212 1 0.41762 79.5 4.77192 19.2682 0 
120 1 0.378184 79.5 5.31178 19.304 0 
33 1 0.378072 79.5 5.79426 19.339 0 
123 1 0.416947 79.5 6.28663 19.3736 0 
166 1 0.418977 79.5 6.77756 19.4051 0 
245 1 0.376779 79.5 7.22863 19.4135 0 
122 1 0.41785 79.5 7.66553 19.4273 0 
63 1 0.377654 79.5 8.1124 19.4633 0 
184 1 0.417741 79.5 8.31493 19.1201 0 
218 1 0.418811 79.5 8.75609 19.148 0 
38 1 0.377736 79.5 8.52662 19.4734 0 
15 1 0.377305 79.5 9.17733 19.1338 0 
87 1 0.377593 79.5 8.97931 19.4765 0 
12 1 0.37772 79.5 9.56788 19.1208 0 
27 1 0.375782 79.5 9.36434 19.4644 0 
296 1 0.418792 79.5 9.76632 19.461 0 
121 1 0.418093 79.5 9.98579 19.1121 0 
47 1 0.418289 79.5 10.197 19.4713 0 
293 1 0.417075 79.5 10.4124 19.1179 0 
283 1 0.377483 79.5 10.5924 19.4799 0 
209 1 0.419672 79.5 10.988 19.4576 0 
92 1 0.417624 79.5 11.2294 19.1161 0 
230 1 0.376846 79.5 11.422 19.4653 0 
58 1 0.415805 79.5 11.8329 19.4651 0 
49 1 0.419815 79.5 12.2792 19.4602 0 
288 1 0.377512 79.5 12.713 19.4514 0 
45 1 0.41618 79.5 13.1651 19.4437 0 
282 1 0.416306 79.5 13.6455 19.4312 0 
171 1 0.417726 79.5 14.1725 19.521 0 
238 1 0.417818 79.5 14.8514 19.2362 0 
176 1 0.376448 79.5 15.3852 19.2385 0 
169 1 0.378453 79.5 4.48628 19.7027 0 
71 1 0.377916 79.5 5.04783 19.7265 0 
50 1 0.378881 79.5 5.5432 19.7463 0 
21 1 0.420824 79.5 6.02967 19.7667 0 
161 1 0.416955 79.5 6.52958 19.7871 0 
252 1 0.378093 79.5 6.99911 19.7978 0 
194 1 0.416887 79.5 7.43741 19.7953 0 
301 1 0.41979 79.5 7.89415 19.7977 0 
32 1 0.375477 79.5 8.32704 19.8166 0 
145 1 0.419666 79.5 8.74982 19.8015 0 
8 1 0.378024 79.5 9.15651 19.818 0 
253 1 0.415824 79.5 9.55147 19.8114 0 
133 1 0.418748 79.5 9.97573 19.816 0 
285 1 0.37676 79.5 10.3942 19.8217 0 
284 1 0.376238 79.5 10.7859 19.8191 0 
26 1 0.417817 79.5 11.2106 19.8054 0 
41 1 0.375472 79.5 11.6241 19.8176 0 
89 1 0.376485 79.5 12.0449 19.8165 0 
11 1 0.377588 79.5 12.4822 19.8145 0 
220 1 0.375738 79.5 12.9162 19.8125 0 
3 1 0.376593 79.5 13.3767 19.8106 0 
114 1 0.376368 79.5 13.8473 19.8119 0 
83 1 0.419111 79.5 14.6024 19.7248 0 
267 1 0.418107 79.5 15.144 19.7055 0 
174 1 0.419338 79.5 15.7851 19.6194 0 
