# LAMMPS data file for rigid bodies

303 atoms

1 atom types

0.0 	 20.0 	 xlo xhi 
0.0 	 20.0 	 ylo yhi 
-1.0 	 1.0 	 zlo zhi 

Atoms

141 1 0.417537 79.5 8.58607 13.7598 0 
154 1 0.377463 79.5 9.23484 13.668 0 
248 1 0.417624 79.5 9.87277 13.5303 0 
142 1 0.376502 79.5 10.5436 13.5728 0 
159 1 0.418141 79.5 11.2181 13.6329 0 
116 1 0.418074 79.5 7.92917 14.0116 0 
172 1 0.377906 79.5 9.00465 14.183 0 
137 1 0.377547 79.5 9.63309 14.0662 0 
290 1 0.417552 79.5 10.2197 14.0455 0 
138 1 0.417163 79.5 10.8421 14.0973 0 
139 1 0.377813 79.5 11.8574 13.8289 0 
277 1 0.378085 79.5 12.5026 14.0379 0 
211 1 0.376915 79.5 6.85026 14.5715 0 
78 1 0.376793 79.5 7.41095 14.3602 0 
56 1 0.417661 79.5 7.91554 14.6573 0 
156 1 0.41736 79.5 8.42203 14.3462 0 
227 1 0.419731 79.5 9.40744 14.529 0 
206 1 0.377502 79.5 9.94956 14.5054 0 
215 1 0.417318 79.5 10.5102 14.5208 0 
131 1 0.37743 79.5 11.0721 14.6112 0 
77 1 0.416408 79.5 11.4317 14.2268 0 
5 1 0.417956 79.5 12.0237 14.3968 0 
82 1 0.37548 79.5 12.5915 14.5902 0 
279 1 0.419009 79.5 6.38418 15.1117 0 
187 1 0.376835 79.5 6.96583 15.0995 0 
34 1 0.376733 79.5 7.44712 14.9282 0 
231 1 0.418206 79.5 8.37839 14.9213 0 
300 1 0.417817 79.5 8.84326 14.6964 0 
91 1 0.375891 79.5 9.22242 14.9855 0 
37 1 0.376521 79.5 9.71765 14.9424 0 
235 1 0.417949 79.5 10.2158 14.9424 0 
225 1 0.418808 79.5 10.7523 14.9939 0 
246 1 0.419558 79.5 11.2729 15.0974 0 
28 1 0.376324 79.5 11.6225 14.7434 0 
60 1 0.378985 79.5 12.1768 14.922 0 
81 1 0.377631 79.5 12.6999 15.1047 0 
195 1 0.376076 79.5 13.1425 14.7065 0 
95 1 0.378511 79.5 13.722 14.9678 0 
292 1 0.419322 79.5 5.78545 15.4514 0 
76 1 0.376361 79.5 7.37087 15.4613 0 
271 1 0.419038 79.5 7.86311 15.2579 0 
150 1 0.42017 79.5 8.34256 15.4092 0 
128 1 0.417636 79.5 8.85009 15.2799 0 
74 1 0.418792 79.5 9.46981 15.36 0 
55 1 0.377258 79.5 9.95341 15.363 0 
250 1 0.419005 79.5 10.4467 15.3823 0 
96 1 0.375974 79.5 10.953 15.4543 0 
104 1 0.417492 79.5 11.7901 15.2375 0 
270 1 0.377661 79.5 12.2969 15.4179 0 
57 1 0.417312 79.5 13.24 15.2862 0 
19 1 0.377048 79.5 14.2986 15.3679 0 
251 1 0.418401 79.5 6.3147 15.7154 0 
249 1 0.37714 79.5 6.85274 15.5776 0 
111 1 0.377387 79.5 7.22094 15.9382 0 
103 1 0.376732 79.5 7.74108 15.7738 0 
113 1 0.376209 79.5 8.18554 15.8405 0 
36 1 0.41802 79.5 8.68985 15.759 0 
226 1 0.418002 79.5 9.16885 15.7127 0 
14 1 0.378044 79.5 9.69015 15.7547 0 
234 1 0.376567 79.5 10.1572 15.7608 0 
144 1 0.417225 79.5 10.6493 15.8065 0 
149 1 0.420339 79.5 11.1199 15.9085 0 
239 1 0.376202 79.5 11.4361 15.5735 0 
20 1 0.418644 79.5 11.9123 15.7342 0 
86 1 0.418347 79.5 12.396 15.914 0 
109 1 0.416555 79.5 12.8034 15.6152 0 
6 1 0.41784 79.5 13.2905 15.8559 0 
205 1 0.417837 79.5 13.7698 15.5812 0 
236 1 0.417091 79.5 14.33 15.9795 0 
61 1 0.416969 79.5 5.60898 16.0508 0 
100 1 0.41738 79.5 6.15796 16.244 0 
147 1 0.378206 79.5 6.74063 16.0496 0 
223 1 0.377582 79.5 7.07747 16.4387 0 
62 1 0.419478 79.5 7.58418 16.2334 0 
273 1 0.375407 79.5 8.03796 16.2558 0 
196 1 0.417674 79.5 8.50266 16.1937 0 
44 1 0.376441 79.5 8.98033 16.142 0 
247 1 0.417974 79.5 9.43393 16.1272 0 
259 1 0.416952 79.5 9.90513 16.1515 0 
53 1 0.418687 79.5 10.3656 16.1632 0 
275 1 0.375236 79.5 10.8131 16.2449 0 
18 1 0.417229 79.5 11.2121 16.3909 0 
193 1 0.377638 79.5 11.5604 16.0431 0 
303 1 0.377701 79.5 12.0227 16.2088 0 
110 1 0.376982 79.5 12.4654 16.3915 0 
295 1 0.376364 79.5 12.8597 16.1291 0 
98 1 0.376685 79.5 13.3215 16.3673 0 
16 1 0.418857 79.5 13.7823 16.1498 0 
180 1 0.4178 79.5 5.16872 16.5056 0 
257 1 0.417584 79.5 5.75049 16.6455 0 
54 1 0.417762 79.5 6.25913 16.8077 0 
88 1 0.377633 79.5 6.61199 16.4864 0 
85 1 0.378114 79.5 7.4486 16.6674 0 
64 1 0.37804 79.5 7.88295 16.6742 0 
197 1 0.418138 79.5 8.32084 16.636 0 
48 1 0.417895 79.5 8.80036 16.5501 0 
73 1 0.418056 79.5 9.24627 16.5477 0 
281 1 0.419313 79.5 9.69015 16.551 0 
119 1 0.418318 79.5 10.1455 16.5649 0 
93 1 0.375858 79.5 10.5667 16.5622 0 
207 1 0.375123 79.5 10.9074 16.7552 0 
214 1 0.375802 79.5 11.312 16.819 0 
72 1 0.418442 79.5 11.6618 16.4835 0 
289 1 0.377045 79.5 12.1003 16.6623 0 
237 1 0.377021 79.5 12.5333 16.8334 0 
35 1 0.375085 79.5 12.9172 16.5904 0 
291 1 0.418671 79.5 13.4818 16.8185 0 
203 1 0.418748 79.5 13.9932 16.6298 0 
256 1 0.417029 79.5 14.5894 16.4957 0 
66 1 0.417743 79.5 15.0852 16.8676 0 
264 1 0.375728 79.5 4.85758 17.0281 0 
70 1 0.418537 79.5 5.43821 17.1008 0 
7 1 0.376836 79.5 5.96221 17.2025 0 
25 1 0.418251 79.5 6.475 17.2695 0 
124 1 0.377489 79.5 6.80029 16.8972 0 
13 1 0.376492 79.5 7.21692 17.0208 0 
52 1 0.417492 79.5 7.674 17.0795 0 
152 1 0.419353 79.5 8.13381 17.0863 0 
204 1 0.417908 79.5 8.63376 16.9567 0 
168 1 0.377281 79.5 8.4751 17.3305 0 
143 1 0.378123 79.5 8.8861 17.3268 0 
67 1 0.375259 79.5 9.07275 16.9442 0 
202 1 0.416907 79.5 9.29602 17.3207 0 
134 1 0.377548 79.5 9.49996 16.9384 0 
40 1 0.417655 79.5 9.71886 17.3186 0 
125 1 0.417497 79.5 9.94933 16.9438 0 
198 1 0.418579 79.5 10.1589 17.3219 0 
39 1 0.417739 79.5 10.443 16.9559 0 
299 1 0.376562 79.5 10.9138 17.1557 0 
153 1 0.418903 79.5 11.3299 17.2337 0 
278 1 0.377425 79.5 11.7276 16.907 0 
242 1 0.419369 79.5 11.7749 17.312 0 
10 1 0.377297 79.5 12.1625 17.0931 0 
115 1 0.377962 79.5 12.5937 17.255 0 
2 1 0.418632 79.5 13.0165 17.0355 0 
158 1 0.378408 79.5 13.4294 17.3116 0 
126 1 0.377564 79.5 13.8886 17.1461 0 
112 1 0.37724 79.5 14.3827 17.0034 0 
90 1 0.418215 79.5 4.4684 17.5366 0 
254 1 0.418928 79.5 5.11041 17.5589 0 
136 1 0.377551 79.5 5.68342 17.5992 0 
219 1 0.416465 79.5 6.19074 17.6709 0 
162 1 0.417925 79.5 6.94639 17.3837 0 
232 1 0.41966 79.5 6.68428 17.7621 0 
170 1 0.419066 79.5 7.40627 17.464 0 
224 1 0.417151 79.5 7.86986 17.5 0 
177 1 0.417786 79.5 8.26 17.6641 0 
97 1 0.377275 79.5 8.69226 17.6878 0 
222 1 0.376423 79.5 9.09762 17.698 0 
51 1 0.378133 79.5 9.49965 17.7 0 
228 1 0.377094 79.5 9.89355 17.689 0 
46 1 0.377328 79.5 10.5764 17.3423 0 
151 1 0.377236 79.5 10.2953 17.7028 0 
233 1 0.376541 79.5 10.6764 17.7039 0 
269 1 0.377027 79.5 11.0411 17.5749 0 
106 1 0.418321 79.5 11.451 17.6602 0 
65 1 0.375901 79.5 11.8777 17.6998 0 
31 1 0.376295 79.5 12.2246 17.5168 0 
274 1 0.37582 79.5 12.5947 17.678 0 
167 1 0.376423 79.5 12.9962 17.4967 0 
43 1 0.416658 79.5 13.8365 17.6358 0 
244 1 0.377185 79.5 14.3048 17.504 0 
105 1 0.378261 79.5 14.788 17.3473 0 
179 1 0.419049 79.5 15.2657 17.6424 0 
265 1 0.4186 79.5 4.78116 18.0422 0 
1 1 0.416656 79.5 5.40558 18.0168 0 
157 1 0.417922 79.5 5.91916 18.0813 0 
217 1 0.420187 79.5 6.41717 18.1479 0 
294 1 0.420196 79.5 6.90812 18.2057 0 
175 1 0.375285 79.5 7.15632 17.8382 0 
99 1 0.418162 79.5 7.60573 17.8893 0 
189 1 0.374207 79.5 8.02726 17.988 0 
201 1 0.37868 79.5 8.46856 18.036 0 
132 1 0.378247 79.5 8.87273 18.0409 0 
261 1 0.377169 79.5 9.28727 18.0515 0 
280 1 0.376116 79.5 9.67543 18.0588 0 
102 1 0.419434 79.5 10.0757 18.0481 0 
22 1 0.376996 79.5 10.4998 18.056 0 
190 1 0.417687 79.5 10.9277 18.0095 0 
268 1 0.418081 79.5 11.3378 18.0621 0 
164 1 0.419166 79.5 11.7547 18.0761 0 
181 1 0.377496 79.5 12.1804 17.9908 0 
80 1 0.376209 79.5 12.5668 18.0701 0 
23 1 0.377532 79.5 12.9651 17.9411 0 
297 1 0.418019 79.5 13.3802 17.7863 0 
240 1 0.417923 79.5 13.7204 18.139 0 
130 1 0.41741 79.5 14.2109 18.0071 0 
182 1 0.376421 79.5 14.707 17.8745 0 
146 1 0.418691 79.5 15.651 18.1332 0 
4 1 0.418796 79.5 4.45087 18.5276 0 
260 1 0.417822 79.5 5.14852 18.4493 0 
263 1 0.375892 79.5 5.67942 18.4963 0 
183 1 0.418934 79.5 6.1628 18.5493 0 
186 1 0.417704 79.5 6.65688 18.5898 0 
245 1 0.376779 79.5 7.11893 18.6312 0 
117 1 0.376414 79.5 7.35148 18.2626 0 
210 1 0.417016 79.5 7.78433 18.3215 0 
188 1 0.417316 79.5 8.23456 18.3717 0 
75 1 0.376447 79.5 8.65531 18.4041 0 
213 1 0.418946 79.5 9.06215 18.3914 0 
140 1 0.378892 79.5 9.48518 18.4077 0 
287 1 0.378509 79.5 9.8727 18.4108 0 
178 1 0.415965 79.5 10.2937 18.4017 0 
229 1 0.41843 79.5 10.7322 18.3875 0 
155 1 0.37768 79.5 11.1329 18.4134 0 
9 1 0.378113 79.5 11.5452 18.44 0 
255 1 0.419607 79.5 11.984 18.4261 0 
272 1 0.378957 79.5 12.393 18.4186 0 
185 1 0.37559 79.5 12.8516 18.3681 0 
208 1 0.376279 79.5 13.2732 18.2631 0 
241 1 0.375449 79.5 13.5626 18.6039 0 
286 1 0.417076 79.5 14.0469 18.5 0 
173 1 0.377039 79.5 14.5462 18.3883 0 
107 1 0.375813 79.5 15.0627 18.2533 0 
84 1 0.417941 79.5 4.05642 19.0259 0 
298 1 0.374614 79.5 4.90233 18.8692 0 
148 1 0.418606 79.5 5.43446 18.907 0 
243 1 0.376024 79.5 5.93424 18.9489 0 
200 1 0.417021 79.5 6.41185 18.9854 0 
166 1 0.418977 79.5 6.88476 19.0153 0 
301 1 0.41979 79.5 7.33777 19.0558 0 
42 1 0.418538 79.5 7.55478 18.6854 0 
63 1 0.377654 79.5 7.78849 19.0801 0 
122 1 0.41785 79.5 8.00431 18.7259 0 
129 1 0.417621 79.5 8.22561 19.0988 0 
163 1 0.376966 79.5 8.44791 18.7469 0 
108 1 0.37715 79.5 8.85451 18.759 0 
59 1 0.419658 79.5 9.27074 18.7515 0 
68 1 0.37735 79.5 9.6785 18.7601 0 
94 1 0.419162 79.5 9.48641 19.1077 0 
262 1 0.418034 79.5 10.0752 18.7557 0 
192 1 0.418338 79.5 10.5213 18.7473 0 
92 1 0.417624 79.5 10.3044 19.0994 0 
230 1 0.376846 79.5 10.9322 18.7577 0 
276 1 0.417911 79.5 10.7375 19.1034 0 
58 1 0.415805 79.5 11.332 18.7807 0 
101 1 0.376457 79.5 11.7594 18.7865 0 
221 1 0.419252 79.5 12.1973 18.8065 0 
29 1 0.417393 79.5 12.6591 18.7514 0 
79 1 0.376387 79.5 13.124 18.6897 0 
174 1 0.419338 79.5 12.9323 19.0975 0 
17 1 0.37517 79.5 13.3814 19.0331 0 
24 1 0.416559 79.5 13.8553 18.9624 0 
191 1 0.419678 79.5 14.362 18.8845 0 
160 1 0.418475 79.5 14.8882 18.7792 0 
267 1 0.418107 79.5 15.4564 18.7104 0 
258 1 0.419432 79.5 4.5987 19.2634 0 
71 1 0.377916 79.5 5.16159 19.3189 0 
212 1 0.41762 79.5 5.69047 19.3503 0 
199 1 0.417759 79.5 6.18409 19.3871 0 
135 1 0.377153 79.5 6.65693 19.3999 0 
252 1 0.378093 79.5 7.11152 19.4196 0 
194 1 0.416887 79.5 7.57686 19.4376 0 
218 1 0.418811 79.5 8.01981 19.4642 0 
15 1 0.377305 79.5 8.4513 19.4674 0 
184 1 0.417741 79.5 8.65227 19.1195 0 
87 1 0.377593 79.5 8.88682 19.4711 0 
118 1 0.41851 79.5 9.06995 19.119 0 
12 1 0.37772 79.5 9.28011 19.4787 0 
296 1 0.418792 79.5 9.67768 19.4711 0 
69 1 0.376926 79.5 9.88754 19.1156 0 
121 1 0.418093 79.5 10.0957 19.4556 0 
47 1 0.418289 79.5 10.517 19.4532 0 
284 1 0.376238 79.5 10.9319 19.4642 0 
216 1 0.376432 79.5 11.1329 19.1328 0 
283 1 0.377483 79.5 11.3248 19.4871 0 
209 1 0.419672 79.5 11.5453 19.1449 0 
11 1 0.377588 79.5 11.7473 19.4948 0 
41 1 0.375472 79.5 11.9616 19.1414 0 
26 1 0.417817 79.5 12.186 19.4743 0 
127 1 0.417806 79.5 12.4553 19.1496 0 
302 1 0.377055 79.5 12.713 19.4738 0 
266 1 0.376034 79.5 13.1715 19.4521 0 
282 1 0.416306 79.5 13.6365 19.3957 0 
30 1 0.376677 79.5 14.137 19.3415 0 
238 1 0.417818 79.5 14.6617 19.2891 0 
176 1 0.376448 79.5 15.1874 19.2255 0 
83 1 0.419111 79.5 15.8431 19.1837 0 
169 1 0.378453 79.5 4.25768 19.6725 0 
50 1 0.378881 79.5 4.87728 19.7251 0 
123 1 0.416947 79.5 5.41886 19.7508 0 
120 1 0.378184 79.5 5.93941 19.7779 0 
33 1 0.378072 79.5 6.4202 19.786 0 
21 1 0.420824 79.5 6.8829 19.79 0 
161 1 0.416955 79.5 7.3521 19.7953 0 
32 1 0.375477 79.5 7.8071 19.8157 0 
38 1 0.377736 79.5 8.24273 19.8159 0 
145 1 0.419666 79.5 8.66991 19.8021 0 
27 1 0.375782 79.5 9.09335 19.8185 0 
8 1 0.378024 79.5 9.48737 19.8202 0 
293 1 0.417075 79.5 9.89706 19.8164 0 
253 1 0.415824 79.5 10.3124 19.8103 0 
133 1 0.418748 79.5 10.732 19.8064 0 
285 1 0.37676 79.5 11.1315 19.8184 0 
89 1 0.376485 79.5 11.5375 19.8187 0 
114 1 0.376368 79.5 11.97 19.8186 0 
49 1 0.419815 79.5 12.4524 19.7968 0 
3 1 0.376593 79.5 12.9342 19.8126 0 
288 1 0.377512 79.5 13.4049 19.801 0 
45 1 0.41618 79.5 13.9034 19.7707 0 
165 1 0.417616 79.5 14.4131 19.741 0 
220 1 0.375738 79.5 14.9366 19.7188 0 
171 1 0.417726 79.5 15.4962 19.67 0 
