# LAMMPS data file for rigid bodies

303 atoms

1 atom types

0.0 	 20.0 	 xlo xhi 
0.0 	 20.0 	 ylo yhi 
-1.0 	 1.0 	 zlo zhi 

Atoms

116 1 0.418074 79.5 8.0638 13.7397 0 
141 1 0.417537 79.5 8.78735 13.6403 0 
154 1 0.377463 79.5 9.44866 13.7165 0 
142 1 0.376502 79.5 10.6052 13.533 0 
5 1 0.417956 79.5 11.2511 13.7605 0 
156 1 0.41736 79.5 8.4464 14.1947 0 
137 1 0.377547 79.5 9.04228 14.1519 0 
248 1 0.417624 79.5 10.0765 13.7999 0 
159 1 0.418141 79.5 10.7253 14.0958 0 
82 1 0.37548 79.5 11.7658 14.1154 0 
187 1 0.376835 79.5 7.19255 14.4512 0 
271 1 0.419038 79.5 7.7735 14.2913 0 
172 1 0.377906 79.5 8.72895 14.6386 0 
235 1 0.417949 79.5 9.28884 14.5941 0 
290 1 0.417552 79.5 9.68258 14.2352 0 
215 1 0.417318 79.5 10.2434 14.3724 0 
138 1 0.417163 79.5 10.7588 14.6503 0 
28 1 0.376324 79.5 11.2461 14.3546 0 
95 1 0.378511 79.5 12.2116 14.4634 0 
139 1 0.377813 79.5 12.7296 14.2401 0 
277 1 0.378085 79.5 13.2723 14.6533 0 
34 1 0.376733 79.5 6.60743 14.6663 0 
76 1 0.376361 79.5 7.05267 15.015 0 
78 1 0.376793 79.5 7.59811 14.8442 0 
300 1 0.417817 79.5 8.16864 14.7061 0 
227 1 0.419731 79.5 9.008 15.0465 0 
55 1 0.377258 79.5 9.5073 15.0276 0 
206 1 0.377502 79.5 9.85686 14.7442 0 
246 1 0.419558 79.5 10.3086 14.914 0 
77 1 0.416408 79.5 11.2462 14.8756 0 
195 1 0.376076 79.5 11.724 14.6873 0 
104 1 0.417492 79.5 12.2033 15.012 0 
60 1 0.378985 79.5 12.7152 14.814 0 
19 1 0.377048 79.5 13.8075 15.1021 0 
292 1 0.419322 79.5 5.82836 15.4536 0 
211 1 0.376915 79.5 6.45975 15.2146 0 
249 1 0.37714 79.5 6.91396 15.5213 0 
56 1 0.417661 79.5 7.44485 15.3687 0 
74 1 0.418792 79.5 7.96233 15.2154 0 
37 1 0.376521 79.5 8.48797 15.1108 0 
150 1 0.42017 79.5 8.80109 15.4943 0 
250 1 0.419005 79.5 9.33307 15.4509 0 
225 1 0.418808 79.5 9.86205 15.3392 0 
149 1 0.420339 79.5 10.3522 15.389 0 
109 1 0.416555 79.5 10.8037 15.1889 0 
131 1 0.37743 79.5 11.2826 15.3532 0 
81 1 0.377631 79.5 11.7277 15.2014 0 
86 1 0.418347 79.5 12.2225 15.541 0 
6 1 0.41784 79.5 12.7075 15.3416 0 
16 1 0.418857 79.5 13.2404 15.2275 0 
61 1 0.416969 79.5 5.23337 15.9971 0 
279 1 0.419009 79.5 6.34765 15.7535 0 
62 1 0.419478 79.5 7.31941 15.8781 0 
103 1 0.376732 79.5 7.8068 15.7256 0 
231 1 0.418206 79.5 8.29457 15.5881 0 
128 1 0.417636 79.5 8.62125 15.9525 0 
226 1 0.418002 79.5 9.11064 15.8693 0 
91 1 0.375891 79.5 9.60694 15.8138 0 
96 1 0.375974 79.5 10.0399 15.788 0 
144 1 0.417225 79.5 10.4935 15.8196 0 
20 1 0.418644 79.5 10.9243 15.6881 0 
239 1 0.376202 79.5 11.3673 15.7865 0 
270 1 0.377661 79.5 11.7844 15.6716 0 
110 1 0.376982 79.5 12.615 15.8407 0 
295 1 0.376364 79.5 13.1065 15.7514 0 
57 1 0.417312 79.5 13.6467 15.6759 0 
205 1 0.417837 79.5 14.2569 15.5801 0 
180 1 0.4178 79.5 5.83224 16.0933 0 
100 1 0.41738 79.5 6.33899 16.3047 0 
251 1 0.418401 79.5 6.82196 16.0216 0 
223 1 0.377582 79.5 7.22313 16.3777 0 
147 1 0.378206 79.5 7.67508 16.2066 0 
36 1 0.41802 79.5 8.13595 16.0726 0 
44 1 0.376441 79.5 8.46652 16.3883 0 
247 1 0.417974 79.5 8.93049 16.3125 0 
259 1 0.416952 79.5 9.39994 16.228 0 
93 1 0.375858 79.5 9.85597 16.1971 0 
14 1 0.378044 79.5 10.2837 16.1994 0 
234 1 0.376567 79.5 10.7649 16.1685 0 
275 1 0.375236 79.5 11.1862 16.167 0 
72 1 0.418442 79.5 11.6737 16.1407 0 
193 1 0.377638 79.5 12.1251 16.0583 0 
303 1 0.377701 79.5 12.5134 16.2721 0 
35 1 0.375085 79.5 12.9842 16.2131 0 
112 1 0.37724 79.5 13.474 16.179 0 
256 1 0.417029 79.5 14.0233 16.1412 0 
236 1 0.417091 79.5 14.6242 16.1373 0 
264 1 0.375728 79.5 5.44176 16.5487 0 
54 1 0.417762 79.5 5.9637 16.6822 0 
136 1 0.377551 79.5 6.46778 16.8272 0 
85 1 0.378114 79.5 6.7898 16.505 0 
13 1 0.376492 79.5 7.55324 16.6607 0 
273 1 0.375407 79.5 7.99278 16.5283 0 
52 1 0.417492 79.5 8.33129 16.806 0 
64 1 0.37804 79.5 8.76464 16.7222 0 
113 1 0.376209 79.5 9.21537 16.6548 0 
73 1 0.418056 79.5 9.65598 16.597 0 
214 1 0.375802 79.5 10.1008 16.5811 0 
53 1 0.418687 79.5 10.5495 16.5528 0 
207 1 0.375123 79.5 11.0046 16.5564 0 
18 1 0.417229 79.5 11.4534 16.5492 0 
289 1 0.377045 79.5 11.9308 16.5297 0 
269 1 0.377027 79.5 12.3379 16.6495 0 
237 1 0.377021 79.5 12.813 16.6424 0 
291 1 0.418671 79.5 13.2851 16.6473 0 
203 1 0.418748 79.5 13.8004 16.6348 0 
98 1 0.376685 79.5 14.3316 16.6612 0 
66 1 0.417743 79.5 14.9349 16.6851 0 
257 1 0.417584 79.5 4.9959 16.9007 0 
88 1 0.377633 79.5 5.59957 17.0712 0 
7 1 0.376836 79.5 6.12024 17.1788 0 
232 1 0.41966 79.5 6.61484 17.2691 0 
25 1 0.418251 79.5 7.03128 16.893 0 
162 1 0.417925 79.5 7.46378 17.0961 0 
111 1 0.377387 79.5 7.88099 16.9787 0 
124 1 0.377489 79.5 8.2104 17.2146 0 
196 1 0.417674 79.5 8.6288 17.1744 0 
48 1 0.417895 79.5 9.03402 17.0518 0 
67 1 0.375259 79.5 9.47691 16.9959 0 
204 1 0.417908 79.5 9.9071 16.9663 0 
40 1 0.417655 79.5 10.145 17.3248 0 
299 1 0.376562 79.5 10.3476 16.9379 0 
39 1 0.417739 79.5 10.5789 17.3033 0 
119 1 0.418318 79.5 10.8 16.933 0 
233 1 0.376541 79.5 11.0265 17.31 0 
151 1 0.377236 79.5 11.2394 16.9432 0 
65 1 0.375901 79.5 11.4507 17.3162 0 
2 1 0.418632 79.5 11.6939 16.9405 0 
278 1 0.377425 79.5 12.127 17.0064 0 
153 1 0.418903 79.5 12.6051 17.0385 0 
23 1 0.377532 79.5 13.0618 17.0879 0 
43 1 0.416658 79.5 13.5386 17.102 0 
126 1 0.377564 79.5 14.0346 17.1074 0 
105 1 0.378261 79.5 14.5681 17.1494 0 
244 1 0.377185 79.5 15.1578 17.2408 0 
70 1 0.418537 79.5 4.61491 17.4014 0 
90 1 0.418215 79.5 5.23427 17.4661 0 
254 1 0.418928 79.5 5.79289 17.5595 0 
1 1 0.416656 79.5 6.30324 17.6572 0 
117 1 0.376414 79.5 6.76214 17.7572 0 
294 1 0.420196 79.5 7.06358 17.3857 0 
175 1 0.375285 79.5 7.49438 17.5165 0 
170 1 0.419066 79.5 7.91067 17.498 0 
197 1 0.418138 79.5 8.39081 17.5926 0 
281 1 0.419313 79.5 8.82466 17.5674 0 
168 1 0.377281 79.5 9.17374 17.7574 0 
99 1 0.418162 79.5 9.29129 17.3792 0 
134 1 0.377548 79.5 9.71174 17.3515 0 
143 1 0.378123 79.5 9.54992 17.7315 0 
125 1 0.417497 79.5 9.94642 17.7088 0 
102 1 0.419434 79.5 10.3706 17.7009 0 
198 1 0.418579 79.5 10.7968 17.6713 0 
22 1 0.376996 79.5 11.2234 17.6771 0 
46 1 0.377328 79.5 11.8927 17.3541 0 
164 1 0.419166 79.5 11.6561 17.7015 0 
242 1 0.419369 79.5 12.3539 17.4093 0 
268 1 0.418081 79.5 12.1077 17.7668 0 
10 1 0.377297 79.5 12.812 17.4742 0 
115 1 0.377962 79.5 13.2625 17.5178 0 
167 1 0.376423 79.5 13.73 17.5486 0 
297 1 0.418019 79.5 14.2336 17.566 0 
158 1 0.378408 79.5 14.7819 17.6466 0 
183 1 0.418934 79.5 4.28136 17.9948 0 
265 1 0.4186 79.5 4.91528 17.9365 0 
157 1 0.417922 79.5 5.48915 17.9774 0 
219 1 0.416465 79.5 6.0086 18.0517 0 
189 1 0.374207 79.5 6.49452 18.1229 0 
42 1 0.418538 79.5 6.94769 18.212 0 
177 1 0.417786 79.5 7.20869 17.8479 0 
224 1 0.417151 79.5 7.66954 17.9119 0 
152 1 0.419353 79.5 8.10617 17.9318 0 
201 1 0.37868 79.5 8.52603 17.9874 0 
202 1 0.416907 79.5 8.91604 18.0555 0 
51 1 0.378133 79.5 9.34268 18.1008 0 
228 1 0.377094 79.5 9.73169 18.0807 0 
280 1 0.376116 79.5 10.1361 18.0623 0 
287 1 0.378509 79.5 10.5561 18.054 0 
106 1 0.418321 79.5 10.9837 18.0444 0 
190 1 0.417687 79.5 11.4181 18.0616 0 
29 1 0.417393 79.5 11.8561 18.1166 0 
80 1 0.376209 79.5 12.2967 18.1733 0 
181 1 0.377496 79.5 12.5544 17.831 0 
31 1 0.376295 79.5 12.9941 17.8884 0 
208 1 0.376279 79.5 13.4476 17.9444 0 
130 1 0.41741 79.5 13.9158 18.0001 0 
179 1 0.419049 79.5 14.4299 18.0405 0 
173 1 0.377039 79.5 14.9688 18.1533 0 
182 1 0.376421 79.5 15.3687 17.7836 0 
4 1 0.418796 79.5 4.6487 18.4605 0 
260 1 0.417822 79.5 5.2209 18.4159 0 
243 1 0.376024 79.5 5.74324 18.456 0 
217 1 0.420187 79.5 6.23062 18.5096 0 
186 1 0.417704 79.5 6.70434 18.583 0 
210 1 0.417016 79.5 7.41133 18.2808 0 
245 1 0.376779 79.5 7.17159 18.6369 0 
188 1 0.417316 79.5 7.87114 18.3184 0 
97 1 0.377275 79.5 8.29746 18.3336 0 
132 1 0.378247 79.5 8.70356 18.3921 0 
108 1 0.37715 79.5 9.11154 18.4255 0 
222 1 0.376423 79.5 9.50675 18.4399 0 
213 1 0.418946 79.5 9.91521 18.4324 0 
262 1 0.418034 79.5 10.3322 18.4059 0 
178 1 0.415965 79.5 10.7565 18.406 0 
229 1 0.41843 79.5 11.1852 18.4199 0 
155 1 0.37768 79.5 11.6076 18.4485 0 
9 1 0.378113 79.5 12.0348 18.499 0 
274 1 0.37582 79.5 12.7223 18.2341 0 
272 1 0.378957 79.5 12.4512 18.5706 0 
221 1 0.419252 79.5 12.8724 18.662 0 
240 1 0.417923 79.5 13.1769 18.3175 0 
185 1 0.37559 79.5 13.6266 18.4024 0 
286 1 0.417076 79.5 14.0895 18.471 0 
241 1 0.375449 79.5 14.5834 18.4973 0 
191 1 0.419678 79.5 15.1535 18.6596 0 
146 1 0.418691 79.5 15.6448 18.3365 0 
263 1 0.375892 79.5 4.29823 18.8951 0 
298 1 0.374614 79.5 4.9862 18.8734 0 
258 1 0.419432 79.5 5.49306 18.8778 0 
212 1 0.41762 79.5 5.97906 18.9223 0 
200 1 0.417021 79.5 6.45839 18.973 0 
148 1 0.418606 79.5 6.92556 19.0047 0 
122 1 0.41785 79.5 7.38597 19.0288 0 
163 1 0.376966 79.5 7.62253 18.6679 0 
129 1 0.417621 79.5 7.82375 19.0514 0 
75 1 0.376447 79.5 8.05766 18.6959 0 
184 1 0.417741 79.5 8.25592 19.0848 0 
59 1 0.419658 79.5 8.47524 18.7196 0 
118 1 0.41851 79.5 8.68956 19.0908 0 
140 1 0.378892 79.5 8.90602 18.7522 0 
261 1 0.377169 79.5 9.30244 18.7755 0 
68 1 0.37735 79.5 9.69414 18.7664 0 
12 1 0.37772 79.5 9.5 19.1102 0 
69 1 0.376926 79.5 10.1202 18.7724 0 
121 1 0.418093 79.5 9.89767 19.1028 0 
92 1 0.417624 79.5 10.5382 18.7652 0 
58 1 0.415805 79.5 10.9542 18.7793 0 
127 1 0.417806 79.5 11.3723 18.795 0 
101 1 0.376457 79.5 11.7817 18.8085 0 
17 1 0.37517 79.5 12.1892 18.8834 0 
165 1 0.417616 79.5 12.5636 19.0239 0 
282 1 0.416306 79.5 13.0197 19.0849 0 
255 1 0.419607 79.5 13.3498 18.7816 0 
79 1 0.376387 79.5 13.782 18.8744 0 
107 1 0.375813 79.5 14.236 18.9211 0 
30 1 0.376677 79.5 14.7101 18.9267 0 
160 1 0.418475 79.5 15.6195 19.0196 0 
84 1 0.417941 79.5 3.97675 19.4215 0 
169 1 0.378453 79.5 4.71056 19.264 0 
71 1 0.377916 79.5 5.26597 19.3089 0 
120 1 0.378184 79.5 5.7468 19.3435 0 
199 1 0.417759 79.5 6.21976 19.3692 0 
252 1 0.378093 79.5 6.69788 19.3895 0 
166 1 0.418977 79.5 7.15802 19.4074 0 
63 1 0.377654 79.5 7.60855 19.4262 0 
194 1 0.416887 79.5 8.02979 19.446 0 
218 1 0.418811 79.5 8.48819 19.4549 0 
94 1 0.419162 79.5 9.10426 19.1289 0 
15 1 0.377305 79.5 8.89653 19.4786 0 
27 1 0.375782 79.5 9.28705 19.482 0 
253 1 0.415824 79.5 9.67952 19.4607 0 
296 1 0.418792 79.5 10.0992 19.4626 0 
276 1 0.417911 79.5 10.3192 19.1159 0 
216 1 0.376432 79.5 10.5142 19.4693 0 
192 1 0.418338 79.5 10.7347 19.1348 0 
284 1 0.376238 79.5 10.9381 19.4729 0 
283 1 0.377483 79.5 11.1421 19.1378 0 
209 1 0.419672 79.5 11.3417 19.486 0 
41 1 0.375472 79.5 11.5514 19.1487 0 
230 1 0.376846 79.5 11.7593 19.4964 0 
302 1 0.377055 79.5 11.9445 19.1689 0 
49 1 0.419815 79.5 12.2597 19.4114 0 
45 1 0.41618 79.5 12.6945 19.4383 0 
3 1 0.376593 79.5 13.1382 19.4765 0 
266 1 0.376034 79.5 13.5024 19.2671 0 
24 1 0.416559 79.5 13.9607 19.3234 0 
238 1 0.417818 79.5 14.4847 19.3478 0 
171 1 0.417726 79.5 15.0673 19.2555 0 
50 1 0.378881 79.5 4.46489 19.7017 0 
123 1 0.416947 79.5 5.00694 19.7215 0 
33 1 0.378072 79.5 5.51919 19.7509 0 
135 1 0.377153 79.5 5.98665 19.7718 0 
21 1 0.420824 79.5 6.46177 19.7782 0 
161 1 0.416955 79.5 6.9309 19.7917 0 
301 1 0.41979 79.5 7.39773 19.7929 0 
32 1 0.375477 79.5 7.82832 19.8138 0 
145 1 0.419666 79.5 8.25929 19.8019 0 
38 1 0.377736 79.5 8.69626 19.8174 0 
87 1 0.377593 79.5 9.09906 19.8187 0 
8 1 0.378024 79.5 9.49019 19.8189 0 
133 1 0.418748 79.5 9.88851 19.815 0 
293 1 0.417075 79.5 10.3133 19.8115 0 
47 1 0.418289 79.5 10.7274 19.8045 0 
89 1 0.376485 79.5 11.1306 19.8215 0 
285 1 0.37676 79.5 11.5562 19.8214 0 
26 1 0.417817 79.5 12.0171 19.7968 0 
11 1 0.377588 79.5 12.4442 19.8115 0 
288 1 0.377512 79.5 12.8783 19.8135 0 
176 1 0.376448 79.5 13.7454 19.7379 0 
114 1 0.376368 79.5 13.3385 19.8088 0 
83 1 0.419111 79.5 14.2228 19.7585 0 
220 1 0.375738 79.5 14.7714 19.7371 0 
267 1 0.418107 79.5 15.3306 19.6957 0 
174 1 0.419338 79.5 15.9029 19.5656 0 
