# LAMMPS data file for rigid bodies

303 atoms

1 atom types

0.0 	 20.0 	 xlo xhi 
0.0 	 20.0 	 ylo yhi 
-1.0 	 1.0 	 zlo zhi 

Atoms

141 1 0.417537 79.5 8.57676 13.676 0 
248 1 0.417624 79.5 9.49551 13.4567 0 
138 1 0.417163 79.5 10.12 13.5737 0 
142 1 0.376502 79.5 11.1802 13.4979 0 
156 1 0.41736 79.5 8.08226 14.0768 0 
154 1 0.377463 79.5 9.12875 13.9053 0 
137 1 0.377547 79.5 9.69352 14.0352 0 
290 1 0.417552 79.5 10.2235 14.1712 0 
77 1 0.416408 79.5 10.6782 13.8125 0 
5 1 0.417956 79.5 11.2467 14.0775 0 
82 1 0.37548 79.5 11.784 13.8033 0 
95 1 0.378511 79.5 12.36 14.1334 0 
116 1 0.418074 79.5 7.26425 14.3123 0 
78 1 0.376793 79.5 7.79102 14.565 0 
300 1 0.417817 79.5 8.3339 14.6407 0 
172 1 0.377906 79.5 8.71007 14.2577 0 
235 1 0.417949 79.5 9.3037 14.4111 0 
206 1 0.377502 79.5 9.81958 14.5591 0 
28 1 0.376324 79.5 10.761 14.3678 0 
159 1 0.418141 79.5 11.3014 14.6095 0 
195 1 0.376076 79.5 11.825 14.3527 0 
139 1 0.377813 79.5 12.9759 14.4957 0 
211 1 0.376915 79.5 6.72987 14.7068 0 
187 1 0.376835 79.5 7.38117 14.9022 0 
271 1 0.419038 79.5 7.96647 15.0695 0 
150 1 0.42017 79.5 8.90285 14.7519 0 
37 1 0.376521 79.5 9.44631 14.9004 0 
55 1 0.377258 79.5 9.9343 15.0355 0 
215 1 0.417318 79.5 10.3293 14.6897 0 
246 1 0.419558 79.5 10.842 14.8709 0 
104 1 0.417492 79.5 11.7887 14.8582 0 
205 1 0.417837 79.5 12.4347 14.6978 0 
60 1 0.378985 79.5 12.9899 15.0691 0 
277 1 0.378085 79.5 13.5134 14.8735 0 
292 1 0.419322 79.5 5.96019 15.34 0 
34 1 0.376733 79.5 6.87645 15.2145 0 
76 1 0.376361 79.5 7.35793 15.3894 0 
249 1 0.37714 79.5 7.79188 15.5305 0 
231 1 0.418206 79.5 8.26022 15.5483 0 
227 1 0.419731 79.5 8.53863 15.1327 0 
226 1 0.418002 79.5 9.06865 15.2331 0 
74 1 0.418792 79.5 9.56718 15.3703 0 
250 1 0.419005 79.5 10.0366 15.5153 0 
225 1 0.418808 79.5 10.4196 15.1831 0 
109 1 0.416555 79.5 10.8983 15.3683 0 
131 1 0.37743 79.5 11.3214 15.1208 0 
86 1 0.418347 79.5 11.7604 15.3822 0 
81 1 0.377631 79.5 12.2078 15.141 0 
295 1 0.376364 79.5 12.6201 15.3887 0 
16 1 0.418857 79.5 13.5658 15.4582 0 
19 1 0.377048 79.5 14.0967 15.2539 0 
61 1 0.416969 79.5 5.55099 15.8941 0 
279 1 0.419009 79.5 6.48351 15.5853 0 
56 1 0.417661 79.5 7.0075 15.7583 0 
103 1 0.376732 79.5 7.49277 15.8919 0 
147 1 0.378206 79.5 7.97978 15.965 0 
273 1 0.375407 79.5 8.44315 15.9967 0 
36 1 0.41802 79.5 8.74723 15.6202 0 
128 1 0.417636 79.5 9.22637 15.7095 0 
91 1 0.375891 79.5 9.69892 15.8407 0 
96 1 0.375974 79.5 10.1476 15.9748 0 
149 1 0.420339 79.5 10.5 15.6672 0 
93 1 0.375858 79.5 10.9356 15.8375 0 
144 1 0.417225 79.5 11.3402 15.6227 0 
270 1 0.377661 79.5 11.7724 15.8858 0 
193 1 0.377638 79.5 12.1888 15.6217 0 
110 1 0.376982 79.5 12.6143 15.8833 0 
57 1 0.417312 79.5 13.073 15.6477 0 
256 1 0.417029 79.5 14.046 15.8664 0 
236 1 0.417091 79.5 14.6318 15.7028 0 
264 1 0.375728 79.5 5.24955 16.4293 0 
251 1 0.418401 79.5 6.12708 16.0202 0 
62 1 0.419478 79.5 6.67051 16.1504 0 
88 1 0.377633 79.5 7.18114 16.2527 0 
85 1 0.378114 79.5 7.66743 16.3141 0 
13 1 0.376492 79.5 8.14956 16.376 0 
196 1 0.417674 79.5 8.60192 16.42 0 
113 1 0.376209 79.5 8.90511 16.07 0 
247 1 0.417974 79.5 9.36344 16.1522 0 
259 1 0.416952 79.5 9.83708 16.2821 0 
14 1 0.378044 79.5 10.5671 16.1198 0 
234 1 0.376567 79.5 10.2782 16.4173 0 
275 1 0.375236 79.5 10.9748 16.2523 0 
20 1 0.418644 79.5 11.3846 16.107 0 
72 1 0.418442 79.5 11.7455 16.4166 0 
239 1 0.376202 79.5 12.1713 16.0648 0 
289 1 0.377045 79.5 12.6269 16.3408 0 
6 1 0.41784 79.5 13.0686 16.1743 0 
98 1 0.376685 79.5 13.5414 16.0196 0 
112 1 0.37724 79.5 13.9561 16.4142 0 
66 1 0.417743 79.5 14.5059 16.2985 0 
100 1 0.41738 79.5 5.81544 16.4929 0 
180 1 0.4178 79.5 6.35287 16.5569 0 
111 1 0.377387 79.5 6.88551 16.6235 0 
124 1 0.377489 79.5 7.36984 16.6787 0 
52 1 0.417492 79.5 7.85314 16.7263 0 
64 1 0.37804 79.5 8.31336 16.7953 0 
197 1 0.418138 79.5 8.75046 16.8495 0 
44 1 0.376441 79.5 9.05126 16.4928 0 
48 1 0.417895 79.5 9.5 16.5794 0 
53 1 0.418687 79.5 9.97082 16.7289 0 
73 1 0.418056 79.5 10.4074 16.8423 0 
207 1 0.375123 79.5 10.717 16.5499 0 
18 1 0.417229 79.5 11.2563 16.5752 0 
214 1 0.375802 79.5 11.624 16.87 0 
278 1 0.377425 79.5 12.2067 16.4684 0 
2 1 0.418632 79.5 12.0534 16.8539 0 
237 1 0.377021 79.5 12.5375 16.7838 0 
303 1 0.377701 79.5 12.9807 16.6756 0 
203 1 0.418748 79.5 13.4551 16.5397 0 
105 1 0.378261 79.5 14.3388 16.831 0 
244 1 0.377185 79.5 14.9022 16.7236 0 
70 1 0.418537 79.5 4.89185 16.9066 0 
257 1 0.417584 79.5 5.52279 16.9663 0 
223 1 0.377582 79.5 6.0709 16.9952 0 
54 1 0.417762 79.5 6.58884 17.0107 0 
175 1 0.375285 79.5 7.09379 17.0463 0 
162 1 0.417925 79.5 7.56957 17.1026 0 
170 1 0.419066 79.5 8.04128 17.1533 0 
67 1 0.375259 79.5 8.48584 17.2093 0 
99 1 0.418162 79.5 9.1913 16.9146 0 
202 1 0.416907 79.5 8.9072 17.2767 0 
281 1 0.419313 79.5 9.63591 16.9946 0 
39 1 0.417739 79.5 10.1221 17.1762 0 
119 1 0.418318 79.5 10.5564 17.2678 0 
299 1 0.376562 79.5 10.8369 16.9323 0 
134 1 0.377548 79.5 11.2254 16.9878 0 
153 1 0.418903 79.5 11.4876 17.313 0 
10 1 0.377297 79.5 11.9223 17.2524 0 
291 1 0.418671 79.5 12.3834 17.1984 0 
35 1 0.375085 79.5 12.8497 17.1225 0 
126 1 0.377564 79.5 13.3088 17.0242 0 
43 1 0.416658 79.5 13.8195 16.9203 0 
297 1 0.418019 79.5 14.1802 17.3315 0 
182 1 0.376421 79.5 14.7096 17.2573 0 
158 1 0.378408 79.5 15.3089 17.1529 0 
90 1 0.418215 79.5 4.5676 17.4645 0 
254 1 0.418928 79.5 5.20321 17.4221 0 
7 1 0.376836 79.5 5.80549 17.4189 0 
136 1 0.377551 79.5 6.32152 17.4238 0 
232 1 0.41966 79.5 6.82894 17.4379 0 
294 1 0.420196 79.5 7.30765 17.4779 0 
189 1 0.374207 79.5 7.78368 17.5166 0 
152 1 0.419353 79.5 8.23906 17.5625 0 
168 1 0.377281 79.5 8.66945 17.6232 0 
143 1 0.378123 79.5 9.07593 17.6843 0 
204 1 0.417908 79.5 9.33569 17.3386 0 
222 1 0.376423 79.5 9.4759 17.7312 0 
125 1 0.417497 79.5 9.76557 17.3912 0 
106 1 0.418321 79.5 10.2509 17.6181 0 
198 1 0.418579 79.5 10.6654 17.682 0 
242 1 0.419369 79.5 11.0072 17.3489 0 
233 1 0.376541 79.5 11.0621 17.7437 0 
65 1 0.375901 79.5 11.4368 17.7157 0 
268 1 0.418081 79.5 11.8426 17.6548 0 
31 1 0.376295 79.5 12.2703 17.6066 0 
269 1 0.377027 79.5 12.7028 17.5437 0 
167 1 0.376423 79.5 13.1494 17.4663 0 
240 1 0.417923 79.5 13.637 17.3912 0 
115 1 0.377962 79.5 13.952 17.7619 0 
185 1 0.37559 79.5 14.5225 17.7497 0 
130 1 0.41741 79.5 15.1027 17.6855 0 
263 1 0.375892 79.5 4.34216 18.0886 0 
265 1 0.4186 79.5 4.93007 17.9405 0 
1 1 0.416656 79.5 5.51989 17.8523 0 
25 1 0.418251 79.5 6.07266 17.8451 0 
157 1 0.417922 79.5 6.58488 17.8413 0 
117 1 0.376414 79.5 7.0634 17.8625 0 
210 1 0.417016 79.5 7.5352 17.8794 0 
224 1 0.417151 79.5 7.98777 17.923 0 
177 1 0.417786 79.5 8.43681 17.9737 0 
201 1 0.37868 79.5 8.85242 18.0163 0 
132 1 0.378247 79.5 9.2612 18.0586 0 
51 1 0.378133 79.5 9.64865 18.1162 0 
40 1 0.417655 79.5 9.87261 17.7889 0 
228 1 0.377094 79.5 10.0868 18.1159 0 
280 1 0.376116 79.5 10.4542 18.0349 0 
151 1 0.377236 79.5 10.8513 18.0709 0 
46 1 0.377328 79.5 11.27 18.0852 0 
80 1 0.376209 79.5 11.6793 18.0532 0 
255 1 0.419607 79.5 12.1147 18.0098 0 
181 1 0.377496 79.5 12.5479 17.9527 0 
23 1 0.377532 79.5 12.9829 17.8895 0 
208 1 0.376279 79.5 13.4363 17.8217 0 
24 1 0.416559 79.5 13.7323 18.1781 0 
79 1 0.376387 79.5 14.245 18.1319 0 
286 1 0.417076 79.5 14.8814 18.1885 0 
179 1 0.419049 79.5 15.5438 18.1304 0 
4 1 0.418796 79.5 4.71632 18.5223 0 
183 1 0.418934 79.5 5.28259 18.3462 0 
219 1 0.416465 79.5 5.81759 18.2709 0 
260 1 0.417822 79.5 6.13994 18.6283 0 
243 1 0.376024 79.5 6.36626 18.2394 0 
245 1 0.376779 79.5 6.63146 18.618 0 
298 1 0.374614 79.5 6.83926 18.2397 0 
200 1 0.417021 79.5 7.08551 18.6427 0 
186 1 0.417704 79.5 7.29883 18.2566 0 
217 1 0.420187 79.5 7.75763 18.2999 0 
188 1 0.417316 79.5 8.20024 18.3338 0 
97 1 0.377275 79.5 8.62702 18.3635 0 
213 1 0.418946 79.5 9.04201 18.3922 0 
140 1 0.378892 79.5 9.45191 18.4391 0 
261 1 0.377169 79.5 9.86369 18.4307 0 
108 1 0.37715 79.5 10.2986 18.4239 0 
287 1 0.378509 79.5 10.6755 18.4057 0 
102 1 0.419434 79.5 11.0734 18.4349 0 
229 1 0.41843 79.5 11.5057 18.4346 0 
164 1 0.419166 79.5 11.93 18.4062 0 
9 1 0.378113 79.5 12.3695 18.3561 0 
274 1 0.37582 79.5 12.8013 18.2954 0 
272 1 0.378957 79.5 13.2506 18.2408 0 
127 1 0.417806 79.5 13.0615 18.6586 0 
174 1 0.419338 79.5 13.5322 18.6187 0 
191 1 0.419678 79.5 14.0197 18.5752 0 
241 1 0.375449 79.5 14.5141 18.5145 0 
173 1 0.377039 79.5 15.2412 18.622 0 
84 1 0.417941 79.5 4.14222 18.7939 0 
148 1 0.418606 79.5 5.13216 18.8716 0 
258 1 0.419432 79.5 5.62055 18.7513 0 
33 1 0.378072 79.5 5.96874 19.0591 0 
199 1 0.417759 79.5 6.42422 19.015 0 
122 1 0.41785 79.5 6.88943 19.0338 0 
163 1 0.376966 79.5 7.33468 19.0468 0 
42 1 0.418538 79.5 7.54006 18.6754 0 
59 1 0.419658 79.5 7.78825 19.0534 0 
75 1 0.376447 79.5 7.9854 18.6944 0 
15 1 0.377305 79.5 8.21664 19.0803 0 
184 1 0.417741 79.5 8.40439 18.7248 0 
118 1 0.41851 79.5 8.82164 18.7478 0 
69 1 0.376926 79.5 9.23982 18.7565 0 
68 1 0.37735 79.5 9.65824 18.7615 0 
94 1 0.419162 79.5 9.44377 19.097 0 
178 1 0.415965 79.5 10.0856 18.7568 0 
92 1 0.417624 79.5 9.86183 19.1028 0 
262 1 0.418034 79.5 10.5059 18.765 0 
22 1 0.376996 79.5 10.9008 18.7929 0 
58 1 0.415805 79.5 11.3067 18.8031 0 
155 1 0.37768 79.5 11.7276 18.7981 0 
221 1 0.419252 79.5 12.1594 18.7602 0 
29 1 0.417393 79.5 12.6078 18.7057 0 
165 1 0.417616 79.5 12.8488 19.0819 0 
282 1 0.416306 79.5 13.3199 19.0445 0 
30 1 0.376677 79.5 13.7961 19.0083 0 
160 1 0.418475 79.5 14.3064 18.9713 0 
107 1 0.375813 79.5 14.8137 18.8795 0 
146 1 0.418691 79.5 15.7189 18.9737 0 
212 1 0.41762 79.5 4.61845 19.1456 0 
120 1 0.378184 79.5 5.11205 19.3553 0 
123 1 0.416947 79.5 5.59526 19.3102 0 
135 1 0.377153 79.5 6.18357 19.4276 0 
166 1 0.418977 79.5 6.64771 19.4203 0 
63 1 0.377654 79.5 7.11949 19.414 0 
129 1 0.417621 79.5 7.56263 19.4183 0 
218 1 0.418811 79.5 8.01963 19.4388 0 
38 1 0.377736 79.5 8.43182 19.4496 0 
12 1 0.37772 79.5 8.6187 19.1118 0 
87 1 0.377593 79.5 8.84576 19.4644 0 
296 1 0.418792 79.5 9.02747 19.1118 0 
27 1 0.375782 79.5 9.24024 19.4633 0 
293 1 0.417075 79.5 9.64776 19.4566 0 
121 1 0.418093 79.5 10.0683 19.4626 0 
276 1 0.417911 79.5 10.2907 19.1191 0 
216 1 0.376432 79.5 10.4942 19.4767 0 
192 1 0.418338 79.5 10.7056 19.141 0 
89 1 0.376485 79.5 10.8879 19.4942 0 
283 1 0.377483 79.5 11.1021 19.1462 0 
41 1 0.375472 79.5 11.2858 19.4737 0 
230 1 0.376846 79.5 11.515 19.147 0 
302 1 0.377055 79.5 11.726 19.4609 0 
101 1 0.376457 79.5 11.9441 19.1322 0 
17 1 0.37517 79.5 12.1722 19.4633 0 
190 1 0.417687 79.5 12.396 19.1156 0 
220 1 0.375738 79.5 12.6175 19.4719 0 
49 1 0.419815 79.5 13.0847 19.4562 0 
45 1 0.41618 79.5 13.5735 19.4275 0 
171 1 0.417726 79.5 14.0703 19.393 0 
266 1 0.376034 79.5 14.6259 19.3376 0 
176 1 0.376448 79.5 15.177 19.2198 0 
169 1 0.378453 79.5 4.25545 19.6009 0 
71 1 0.377916 79.5 4.80536 19.7197 0 
50 1 0.378881 79.5 5.37371 19.7567 0 
21 1 0.420824 79.5 5.87611 19.7532 0 
252 1 0.378093 79.5 6.40105 19.8021 0 
301 1 0.41979 79.5 6.88619 19.7921 0 
161 1 0.416955 79.5 7.34457 19.7946 0 
194 1 0.416887 79.5 7.79615 19.7973 0 
32 1 0.375477 79.5 8.22417 19.815 0 
145 1 0.419666 79.5 8.63357 19.8003 0 
8 1 0.378024 79.5 9.04054 19.8162 0 
253 1 0.415824 79.5 9.43644 19.808 0 
133 1 0.418748 79.5 9.85554 19.8138 0 
47 1 0.418289 79.5 10.2867 19.8114 0 
284 1 0.376238 79.5 10.685 19.82 0 
285 1 0.37676 79.5 11.0847 19.8193 0 
209 1 0.419672 79.5 11.5075 19.8011 0 
26 1 0.417817 79.5 11.9499 19.799 0 
11 1 0.377588 79.5 12.3906 19.8133 0 
114 1 0.376368 79.5 12.841 19.8136 0 
288 1 0.377512 79.5 13.3295 19.8106 0 
3 1 0.376593 79.5 13.8306 19.7943 0 
83 1 0.419111 79.5 14.3809 19.7575 0 
267 1 0.418107 79.5 14.9609 19.7118 0 
238 1 0.417818 79.5 15.5721 19.6257 0 
