# LAMMPS data file for rigid bodies

303 atoms

1 atom types

0.0 	 20.0 	 xlo xhi 
0.0 	 20.0 	 ylo yhi 
-1.0 	 1.0 	 zlo zhi 

Atoms

141 1 0.417537 79.5 8.6215 13.5354 0 
290 1 0.417552 79.5 9.45149 13.6103 0 
248 1 0.417624 79.5 10.0672 13.3767 0 
138 1 0.417163 79.5 10.5531 13.7629 0 
28 1 0.376324 79.5 11.1919 13.6557 0 
116 1 0.418074 79.5 7.9194 13.8948 0 
156 1 0.41736 79.5 8.4629 14.1597 0 
154 1 0.377463 79.5 9.00064 13.9724 0 
246 1 0.419558 79.5 9.95262 13.9739 0 
159 1 0.418141 79.5 10.9601 14.1897 0 
142 1 0.376502 79.5 11.5332 14.1379 0 
95 1 0.378511 79.5 12.0857 14.111 0 
139 1 0.377813 79.5 12.6755 14.1812 0 
187 1 0.376835 79.5 7.47226 14.312 0 
78 1 0.376793 79.5 8.01141 14.5214 0 
137 1 0.377547 79.5 8.93785 14.4903 0 
206 1 0.377502 79.5 9.44662 14.2322 0 
215 1 0.417318 79.5 9.87355 14.526 0 
77 1 0.416408 79.5 10.3967 14.334 0 
5 1 0.417956 79.5 11.3237 14.6421 0 
82 1 0.37548 79.5 11.8651 14.6226 0 
195 1 0.376076 79.5 12.395 14.667 0 
34 1 0.376733 79.5 6.6488 15.0566 0 
76 1 0.376361 79.5 7.04774 14.6859 0 
271 1 0.419038 79.5 7.6046 14.8751 0 
231 1 0.418206 79.5 8.1473 15.0757 0 
172 1 0.377906 79.5 8.48597 14.7103 0 
300 1 0.417817 79.5 8.85886 15.0259 0 
235 1 0.417949 79.5 9.36116 14.7536 0 
55 1 0.377258 79.5 9.77835 15.0153 0 
225 1 0.418808 79.5 10.2679 14.873 0 
149 1 0.420339 79.5 10.7892 14.7042 0 
104 1 0.417492 79.5 11.637 15.0867 0 
277 1 0.378085 79.5 12.994 14.6779 0 
19 1 0.377048 79.5 13.6363 14.813 0 
292 1 0.419322 79.5 6.21904 15.4118 0 
249 1 0.37714 79.5 7.18176 15.2366 0 
56 1 0.417661 79.5 7.69507 15.3969 0 
103 1 0.376732 79.5 8.56498 15.4001 0 
227 1 0.419731 79.5 9.29086 15.2551 0 
37 1 0.376521 79.5 9.69929 15.4561 0 
250 1 0.419005 79.5 10.1359 15.3744 0 
96 1 0.375974 79.5 10.6514 15.1677 0 
131 1 0.37743 79.5 11.1255 15.1202 0 
109 1 0.416555 79.5 11.4255 15.5381 0 
81 1 0.377631 79.5 11.9103 15.5482 0 
60 1 0.378985 79.5 12.1433 15.1121 0 
193 1 0.377638 79.5 12.6771 15.1325 0 
6 1 0.41784 79.5 13.2358 15.2033 0 
205 1 0.417837 79.5 14.0057 15.3467 0 
61 1 0.416969 79.5 5.27638 15.8866 0 
279 1 0.419009 79.5 5.90592 15.8872 0 
147 1 0.378206 79.5 6.46895 15.992 0 
211 1 0.376915 79.5 6.79391 15.6024 0 
251 1 0.418401 79.5 7.30443 15.7484 0 
223 1 0.377582 79.5 7.76988 15.9071 0 
62 1 0.419478 79.5 8.16114 15.5957 0 
36 1 0.41802 79.5 8.64725 15.9695 0 
74 1 0.418792 79.5 8.96172 15.6178 0 
150 1 0.42017 79.5 9.40027 15.7806 0 
91 1 0.375891 79.5 9.87917 15.8509 0 
144 1 0.417225 79.5 10.5271 15.5962 0 
14 1 0.378044 79.5 10.2903 15.9484 0 
270 1 0.377661 79.5 10.9694 15.5655 0 
93 1 0.375858 79.5 10.7456 15.9931 0 
239 1 0.376202 79.5 11.183 15.9663 0 
72 1 0.418442 79.5 11.665 15.9652 0 
86 1 0.418347 79.5 12.4024 15.5655 0 
303 1 0.377701 79.5 12.1421 15.9905 0 
295 1 0.376364 79.5 12.9185 15.6168 0 
57 1 0.417312 79.5 13.5249 15.677 0 
236 1 0.417091 79.5 14.2105 15.9305 0 
180 1 0.4178 79.5 5.59388 16.3917 0 
54 1 0.417762 79.5 6.15981 16.4128 0 
100 1 0.41738 79.5 6.97286 16.1291 0 
111 1 0.377387 79.5 7.46596 16.2499 0 
273 1 0.375407 79.5 7.92949 16.3649 0 
85 1 0.378114 79.5 8.2075 16.0401 0 
128 1 0.417636 79.5 8.44056 16.4192 0 
226 1 0.418002 79.5 9.08962 16.1345 0 
247 1 0.417974 79.5 9.56535 16.2112 0 
53 1 0.418687 79.5 10.0298 16.2949 0 
234 1 0.376567 79.5 10.4861 16.3432 0 
275 1 0.375236 79.5 10.9414 16.3691 0 
20 1 0.418644 79.5 11.3992 16.3618 0 
289 1 0.377045 79.5 11.8867 16.3778 0 
35 1 0.375085 79.5 12.3568 16.405 0 
110 1 0.376982 79.5 12.6233 16.011 0 
203 1 0.418748 79.5 12.8364 16.4391 0 
112 1 0.37724 79.5 13.1456 16.0458 0 
98 1 0.376685 79.5 13.6947 16.1686 0 
16 1 0.418857 79.5 14.6788 16.3525 0 
264 1 0.375728 79.5 5.13915 16.6963 0 
7 1 0.376836 79.5 5.84988 16.8496 0 
88 1 0.377633 79.5 6.6669 16.5074 0 
13 1 0.376492 79.5 7.16458 16.5987 0 
52 1 0.417492 79.5 7.63511 16.7059 0 
196 1 0.417674 79.5 8.12563 16.7753 0 
48 1 0.417895 79.5 8.60202 16.8571 0 
113 1 0.376209 79.5 8.8747 16.5096 0 
44 1 0.376441 79.5 9.29822 16.5716 0 
259 1 0.416952 79.5 9.74638 16.6344 0 
207 1 0.375123 79.5 10.2228 16.6919 0 
18 1 0.417229 79.5 10.6778 16.7271 0 
278 1 0.377425 79.5 11.1471 16.7422 0 
153 1 0.418903 79.5 11.6255 16.755 0 
2 1 0.418632 79.5 12.1084 16.7856 0 
237 1 0.377021 79.5 12.5672 16.8413 0 
291 1 0.418671 79.5 13.0503 16.8779 0 
126 1 0.377564 79.5 13.345 16.4849 0 
256 1 0.417029 79.5 14.0663 16.5223 0 
257 1 0.417584 79.5 4.79414 17.1656 0 
70 1 0.418537 79.5 5.44791 17.1823 0 
136 1 0.377551 79.5 6.04708 17.2866 0 
124 1 0.377489 79.5 6.35889 16.8917 0 
162 1 0.417925 79.5 6.86439 16.9576 0 
64 1 0.37804 79.5 7.3447 17.046 0 
175 1 0.375285 79.5 7.82935 17.1204 0 
197 1 0.418138 79.5 8.30421 17.1991 0 
281 1 0.419313 79.5 8.78466 17.2703 0 
67 1 0.375259 79.5 9.04902 16.9232 0 
168 1 0.377281 79.5 9.22705 17.3249 0 
73 1 0.418056 79.5 9.4795 16.9854 0 
204 1 0.417908 79.5 9.94905 17.0228 0 
214 1 0.375802 79.5 10.4128 17.0637 0 
299 1 0.376562 79.5 10.8975 17.0821 0 
39 1 0.417739 79.5 11.361 17.1215 0 
119 1 0.418318 79.5 11.8429 17.1607 0 
10 1 0.377297 79.5 12.3036 17.2066 0 
269 1 0.377027 79.5 12.7651 17.255 0 
240 1 0.417923 79.5 13.252 17.3116 0 
43 1 0.416658 79.5 13.5756 16.9011 0 
244 1 0.377185 79.5 14.0354 17.0239 0 
66 1 0.417743 79.5 14.5434 16.9328 0 
105 1 0.378261 79.5 15.1106 16.9342 0 
254 1 0.418928 79.5 4.49099 17.7295 0 
1 1 0.416656 79.5 5.12968 17.6542 0 
219 1 0.416465 79.5 5.71421 17.6589 0 
25 1 0.418251 79.5 6.555 17.3381 0 
294 1 0.420196 79.5 6.26325 17.7312 0 
232 1 0.41966 79.5 7.05567 17.4132 0 
152 1 0.419353 79.5 7.53073 17.4605 0 
177 1 0.417786 79.5 8.00322 17.5297 0 
170 1 0.419066 79.5 8.49123 17.6065 0 
224 1 0.417151 79.5 8.96849 17.6709 0 
134 1 0.377548 79.5 9.67864 17.3584 0 
99 1 0.418162 79.5 9.42987 17.6932 0 
202 1 0.416907 79.5 10.1458 17.3966 0 
143 1 0.378123 79.5 9.87492 17.7051 0 
40 1 0.417655 79.5 10.6383 17.409 0 
125 1 0.417497 79.5 10.383 17.7389 0 
106 1 0.418321 79.5 11.0893 17.4625 0 
46 1 0.377328 79.5 11.5777 17.4948 0 
233 1 0.376541 79.5 12.0312 17.5537 0 
242 1 0.419369 79.5 12.4922 17.614 0 
23 1 0.377532 79.5 12.9481 17.6773 0 
167 1 0.376423 79.5 13.7318 17.4054 0 
115 1 0.377962 79.5 13.4116 17.7474 0 
297 1 0.418019 79.5 14.2582 17.4585 0 
158 1 0.378408 79.5 14.7849 17.455 0 
173 1 0.377039 79.5 15.3565 17.5009 0 
265 1 0.4186 79.5 4.87389 18.1858 0 
4 1 0.418796 79.5 5.43475 18.1071 0 
183 1 0.418934 79.5 5.97785 18.1151 0 
243 1 0.376024 79.5 6.49624 18.1626 0 
157 1 0.417922 79.5 6.76623 17.7867 0 
217 1 0.420187 79.5 6.98267 18.2043 0 
189 1 0.374207 79.5 7.24788 17.8391 0 
188 1 0.417316 79.5 7.68949 17.8846 0 
210 1 0.417016 79.5 8.14757 17.9397 0 
201 1 0.37868 79.5 8.56014 18.0042 0 
222 1 0.376423 79.5 8.93703 18.0651 0 
228 1 0.377094 79.5 9.31136 18.0725 0 
51 1 0.378133 79.5 9.68888 18.0562 0 
198 1 0.418579 79.5 10.0982 18.0422 0 
22 1 0.376996 79.5 10.572 18.0872 0 
151 1 0.377236 79.5 10.8342 17.7952 0 
102 1 0.419434 79.5 11.0572 18.1416 0 
268 1 0.418081 79.5 11.3193 17.8156 0 
190 1 0.417687 79.5 11.5011 18.2101 0 
65 1 0.375901 79.5 11.7637 17.8675 0 
80 1 0.376209 79.5 12.2069 17.9382 0 
181 1 0.377496 79.5 12.6649 18.0303 0 
31 1 0.376295 79.5 13.106 18.0911 0 
185 1 0.37559 79.5 13.5593 18.1565 0 
130 1 0.41741 79.5 13.9263 17.8635 0 
182 1 0.376421 79.5 14.4624 17.9121 0 
179 1 0.419049 79.5 15.008 17.9712 0 
160 1 0.418475 79.5 15.6377 18.0884 0 
90 1 0.418215 79.5 4.29575 18.3888 0 
263 1 0.375892 79.5 5.22561 18.5899 0 
186 1 0.417704 79.5 5.72961 18.5388 0 
148 1 0.418606 79.5 6.23653 18.5451 0 
200 1 0.417021 79.5 6.72166 18.5825 0 
117 1 0.376414 79.5 7.42751 18.2568 0 
245 1 0.376779 79.5 7.18389 18.617 0 
42 1 0.418538 79.5 7.86208 18.2939 0 
75 1 0.376447 79.5 7.60919 18.6564 0 
97 1 0.377275 79.5 8.29323 18.3422 0 
213 1 0.418946 79.5 8.71042 18.3958 0 
132 1 0.378247 79.5 9.11818 18.4329 0 
287 1 0.378509 79.5 9.5 18.4207 0 
280 1 0.376116 79.5 9.88599 18.4005 0 
262 1 0.418034 79.5 10.3145 18.3966 0 
229 1 0.41843 79.5 10.7635 18.434 0 
155 1 0.37768 79.5 11.2468 18.5253 0 
164 1 0.419166 79.5 11.9321 18.2608 0 
9 1 0.378113 79.5 11.6591 18.6072 0 
208 1 0.376279 79.5 12.3726 18.3228 0 
29 1 0.417393 79.5 12.0809 18.6621 0 
274 1 0.37582 79.5 12.8394 18.437 0 
24 1 0.416559 79.5 13.2672 18.5301 0 
191 1 0.419678 79.5 13.7517 18.5557 0 
286 1 0.417076 79.5 14.1554 18.3166 0 
241 1 0.375449 79.5 14.6502 18.373 0 
174 1 0.419338 79.5 15.2184 18.5111 0 
258 1 0.419432 79.5 4.15685 19.0433 0 
84 1 0.417941 79.5 4.76258 18.7799 0 
298 1 0.374614 79.5 5.50146 18.9657 0 
260 1 0.417822 79.5 5.99084 18.9707 0 
212 1 0.41762 79.5 6.46709 18.9807 0 
199 1 0.417759 79.5 6.9375 19.0019 0 
166 1 0.418977 79.5 7.3816 19.0214 0 
163 1 0.376966 79.5 7.80958 19.056 0 
59 1 0.419658 79.5 8.03386 18.695 0 
129 1 0.417621 79.5 8.23587 19.0858 0 
184 1 0.417741 79.5 8.46658 18.7339 0 
118 1 0.41851 79.5 8.66613 19.1078 0 
108 1 0.37715 79.5 8.89587 18.7665 0 
261 1 0.377169 79.5 9.29126 18.7815 0 
140 1 0.378892 79.5 9.66982 18.7587 0 
92 1 0.417624 79.5 10.0779 18.7464 0 
94 1 0.419162 79.5 9.86014 19.1064 0 
192 1 0.418338 79.5 10.5092 18.7628 0 
121 1 0.418093 79.5 10.28 19.1094 0 
178 1 0.415965 79.5 10.9619 18.7971 0 
127 1 0.417806 79.5 11.4193 18.9332 0 
101 1 0.376457 79.5 11.8203 19.0082 0 
221 1 0.419252 79.5 12.2324 19.0634 0 
255 1 0.419607 79.5 12.535 18.7116 0 
41 1 0.375472 79.5 12.6624 19.0929 0 
272 1 0.378957 79.5 13.0203 18.909 0 
17 1 0.37517 79.5 13.4705 18.9408 0 
79 1 0.376387 79.5 13.9308 18.9545 0 
107 1 0.375813 79.5 14.3432 18.7925 0 
266 1 0.376034 79.5 14.8212 18.8224 0 
146 1 0.418691 79.5 15.7217 18.8062 0 
169 1 0.378453 79.5 4.68625 19.2857 0 
120 1 0.378184 79.5 5.18447 19.2826 0 
33 1 0.378072 79.5 5.7374 19.3645 0 
135 1 0.377153 79.5 6.23132 19.3854 0 
301 1 0.41979 79.5 6.69412 19.3971 0 
63 1 0.377654 79.5 7.14983 19.412 0 
122 1 0.41785 79.5 7.57677 19.4225 0 
218 1 0.418811 79.5 8.02193 19.4441 0 
87 1 0.377593 79.5 8.44101 19.4575 0 
15 1 0.377305 79.5 8.85172 19.459 0 
69 1 0.376926 79.5 9.07423 19.1128 0 
296 1 0.418792 79.5 9.24645 19.4706 0 
68 1 0.37735 79.5 9.46399 19.1233 0 
293 1 0.417075 79.5 9.65708 19.4792 0 
253 1 0.415824 79.5 10.0657 19.4642 0 
47 1 0.418289 79.5 10.4807 19.4717 0 
276 1 0.417911 79.5 10.7073 19.126 0 
283 1 0.377483 79.5 10.8736 19.4881 0 
230 1 0.376846 79.5 11.1021 19.1648 0 
216 1 0.376432 79.5 11.249 19.5041 0 
58 1 0.415805 79.5 11.6123 19.3602 0 
302 1 0.377055 79.5 12.0072 19.4189 0 
26 1 0.417817 79.5 12.4257 19.4547 0 
49 1 0.419815 79.5 12.8758 19.4358 0 
165 1 0.417616 79.5 13.2879 19.3374 0 
282 1 0.416306 79.5 13.7464 19.3628 0 
171 1 0.417726 79.5 14.2308 19.316 0 
238 1 0.417818 79.5 14.7118 19.2812 0 
176 1 0.376448 79.5 15.2437 19.1585 0 
267 1 0.418107 79.5 15.9712 19.3909 0 
71 1 0.377916 79.5 4.32777 19.6668 0 
50 1 0.378881 79.5 4.9289 19.7275 0 
123 1 0.416947 79.5 5.44583 19.7357 0 
21 1 0.420824 79.5 5.97717 19.7685 0 
252 1 0.378093 79.5 6.46102 19.7881 0 
161 1 0.416955 79.5 6.92835 19.792 0 
32 1 0.375477 79.5 7.36861 19.8068 0 
194 1 0.416887 79.5 7.80193 19.7989 0 
38 1 0.377736 79.5 8.23588 19.8147 0 
145 1 0.419666 79.5 8.65195 19.8013 0 
12 1 0.37772 79.5 9.06214 19.8205 0 
27 1 0.375782 79.5 9.46183 19.8224 0 
8 1 0.378024 79.5 9.85766 19.8219 0 
133 1 0.418748 79.5 10.263 19.8194 0 
284 1 0.376238 79.5 10.6625 19.8226 0 
285 1 0.37676 79.5 11.0447 19.8233 0 
11 1 0.377588 79.5 11.4431 19.8202 0 
209 1 0.419672 79.5 11.8366 19.7913 0 
89 1 0.376485 79.5 12.2364 19.8145 0 
220 1 0.375738 79.5 12.6559 19.8142 0 
288 1 0.377512 79.5 13.0882 19.8037 0 
45 1 0.41618 79.5 13.5233 19.7727 0 
114 1 0.376368 79.5 13.9938 19.7664 0 
3 1 0.376593 79.5 14.4599 19.7491 0 
83 1 0.419111 79.5 14.9732 19.7114 0 
30 1 0.376677 79.5 15.4855 19.6587 0 
