# LAMMPS data file for rigid bodies

303 atoms

1 atom types

0.0 	 20.0 	 xlo xhi 
0.0 	 20.0 	 ylo yhi 
-1.0 	 1.0 	 zlo zhi 

Atoms

248 1 0.417624 79.5 9.2676 13.4696 0 
159 1 0.418141 79.5 10.014 13.5224 0 
82 1 0.37548 79.5 10.6732 13.5947 0 
5 1 0.417956 79.5 11.4022 13.5659 0 
116 1 0.418074 79.5 7.8146 13.9308 0 
141 1 0.417537 79.5 8.46559 13.8586 0 
154 1 0.377463 79.5 9.00633 14.0096 0 
138 1 0.417163 79.5 9.57095 13.9923 0 
142 1 0.376502 79.5 10.1027 14.0876 0 
28 1 0.376324 79.5 10.5982 14.1246 0 
246 1 0.419558 79.5 11.1456 14.0945 0 
77 1 0.416408 79.5 11.7326 14.1346 0 
195 1 0.376076 79.5 12.3015 14.201 0 
187 1 0.376835 79.5 7.05899 14.454 0 
78 1 0.376793 79.5 7.62798 14.4813 0 
156 1 0.41736 79.5 8.21319 14.4172 0 
137 1 0.377547 79.5 8.74547 14.4688 0 
290 1 0.417552 79.5 9.28766 14.479 0 
215 1 0.417318 79.5 9.80972 14.5272 0 
270 1 0.377661 79.5 10.3277 14.5711 0 
225 1 0.418808 79.5 10.8689 14.5727 0 
96 1 0.375974 79.5 11.4026 14.6061 0 
139 1 0.377813 79.5 12.9077 14.3384 0 
211 1 0.376915 79.5 6.35629 14.9266 0 
34 1 0.376733 79.5 6.91608 14.9955 0 
76 1 0.376361 79.5 7.4258 14.9777 0 
300 1 0.417817 79.5 7.95958 14.9166 0 
172 1 0.377906 79.5 8.49346 14.9119 0 
235 1 0.417949 79.5 9.02182 14.9234 0 
206 1 0.377502 79.5 9.5313 14.957 0 
37 1 0.376521 79.5 10.0369 14.9773 0 
250 1 0.419005 79.5 10.5711 15.001 0 
20 1 0.418644 79.5 11.0903 15.0436 0 
131 1 0.37743 79.5 11.9342 14.6742 0 
109 1 0.416555 79.5 11.6073 15.0869 0 
104 1 0.417492 79.5 12.4854 14.7514 0 
95 1 0.378511 79.5 13.0859 14.8835 0 
277 1 0.378085 79.5 13.6651 15.0462 0 
292 1 0.419322 79.5 6.01288 15.4541 0 
279 1 0.419009 79.5 6.64147 15.461 0 
249 1 0.37714 79.5 7.19015 15.4702 0 
56 1 0.417661 79.5 7.69775 15.4141 0 
271 1 0.419038 79.5 8.23075 15.3558 0 
227 1 0.419731 79.5 8.7588 15.3488 0 
55 1 0.377258 79.5 9.27608 15.3574 0 
91 1 0.375891 79.5 9.76767 15.3643 0 
144 1 0.417225 79.5 10.2838 15.3868 0 
275 1 0.375236 79.5 10.7925 15.4447 0 
234 1 0.376567 79.5 11.2786 15.4888 0 
149 1 0.420339 79.5 11.8035 15.5515 0 
81 1 0.377631 79.5 12.1347 15.1658 0 
6 1 0.41784 79.5 12.6756 15.2691 0 
60 1 0.378985 79.5 13.2294 15.408 0 
61 1 0.416969 79.5 6.41397 15.9409 0 
251 1 0.418401 79.5 6.97054 15.9379 0 
103 1 0.376732 79.5 7.47004 15.8953 0 
150 1 0.42017 79.5 7.98849 15.8181 0 
74 1 0.418792 79.5 8.50081 15.772 0 
14 1 0.378044 79.5 9.02536 15.7413 0 
93 1 0.375858 79.5 9.51668 15.7426 0 
53 1 0.418687 79.5 10.0065 15.7684 0 
73 1 0.418056 79.5 10.5014 15.8163 0 
207 1 0.375123 79.5 10.9846 15.8598 0 
18 1 0.417229 79.5 11.4708 15.9118 0 
193 1 0.377638 79.5 11.9873 15.9984 0 
239 1 0.376202 79.5 12.3094 15.6337 0 
295 1 0.376364 79.5 12.8343 15.7539 0 
57 1 0.417312 79.5 13.375 15.9029 0 
205 1 0.417837 79.5 13.8868 15.6021 0 
19 1 0.377048 79.5 14.3978 15.9765 0 
264 1 0.375728 79.5 5.20019 16.2505 0 
180 1 0.4178 79.5 5.81105 16.0144 0 
147 1 0.378206 79.5 6.25203 16.4064 0 
54 1 0.417762 79.5 6.77607 16.4094 0 
223 1 0.377582 79.5 7.26659 16.3775 0 
62 1 0.419478 79.5 7.76738 16.2626 0 
231 1 0.418206 79.5 8.27563 16.2154 0 
128 1 0.417636 79.5 8.7871 16.1388 0 
226 1 0.418002 79.5 9.28082 16.1241 0 
259 1 0.416952 79.5 9.75818 16.1491 0 
67 1 0.375259 79.5 10.2249 16.1812 0 
299 1 0.376562 79.5 10.7052 16.2123 0 
214 1 0.375802 79.5 11.1711 16.2627 0 
72 1 0.418442 79.5 11.6736 16.3326 0 
86 1 0.418347 79.5 12.4673 16.0943 0 
112 1 0.37724 79.5 12.9482 16.2211 0 
98 1 0.376685 79.5 13.4042 16.413 0 
16 1 0.418857 79.5 13.8699 16.1976 0 
236 1 0.417091 79.5 14.8321 16.4415 0 
100 1 0.41738 79.5 5.66921 16.5675 0 
88 1 0.377633 79.5 6.09493 16.8416 0 
111 1 0.377387 79.5 6.56941 16.8437 0 
13 1 0.376492 79.5 7.04643 16.8485 0 
85 1 0.378114 79.5 7.58825 16.6893 0 
36 1 0.41802 79.5 8.06368 16.6489 0 
113 1 0.376209 79.5 8.58342 16.5377 0 
247 1 0.417974 79.5 9.05225 16.5209 0 
48 1 0.417895 79.5 9.52127 16.535 0 
134 1 0.377548 79.5 9.96883 16.5462 0 
202 1 0.416907 79.5 10.4284 16.5638 0 
39 1 0.417739 79.5 10.891 16.6141 0 
153 1 0.418903 79.5 11.3645 16.671 0 
2 1 0.418632 79.5 11.8375 16.7766 0 
289 1 0.377045 79.5 12.1465 16.4485 0 
110 1 0.376982 79.5 12.5968 16.5587 0 
35 1 0.375085 79.5 13.0454 16.6819 0 
203 1 0.418748 79.5 13.7124 16.7832 0 
256 1 0.417029 79.5 14.2526 16.5942 0 
257 1 0.417584 79.5 5.17928 16.8945 0 
7 1 0.376836 79.5 5.70907 17.135 0 
136 1 0.377551 79.5 6.22929 17.2695 0 
232 1 0.41966 79.5 6.70289 17.2888 0 
124 1 0.377489 79.5 7.41993 17.0721 0 
52 1 0.417492 79.5 7.86824 17.085 0 
273 1 0.375407 79.5 8.40668 16.9073 0 
64 1 0.37804 79.5 8.25389 17.2629 0 
196 1 0.417674 79.5 8.84284 16.9142 0 
44 1 0.376441 79.5 8.65944 17.2969 0 
281 1 0.419313 79.5 9.29741 16.918 0 
197 1 0.418138 79.5 9.08188 17.3084 0 
168 1 0.377281 79.5 9.73371 16.9267 0 
204 1 0.417908 79.5 9.51038 17.3127 0 
125 1 0.417497 79.5 10.1632 16.9294 0 
228 1 0.377094 79.5 9.92067 17.3035 0 
46 1 0.377328 79.5 10.6131 16.9586 0 
198 1 0.418579 79.5 10.3508 17.3148 0 
119 1 0.418318 79.5 11.0792 17.0222 0 
269 1 0.377027 79.5 11.5249 17.0897 0 
237 1 0.377021 79.5 11.9978 17.1851 0 
278 1 0.377425 79.5 12.3029 16.8954 0 
303 1 0.377701 79.5 12.7412 17.0053 0 
291 1 0.418671 79.5 13.2571 17.0886 0 
126 1 0.377564 79.5 13.6665 17.2836 0 
66 1 0.417743 79.5 14.1316 17.1335 0 
105 1 0.378261 79.5 14.6437 17.0199 0 
158 1 0.378408 79.5 15.2368 16.9619 0 
70 1 0.418537 79.5 4.76711 17.3355 0 
254 1 0.418928 79.5 5.34656 17.4937 0 
219 1 0.416465 79.5 5.89369 17.6233 0 
157 1 0.417922 79.5 6.40566 17.7096 0 
25 1 0.418251 79.5 7.1381 17.4019 0 
175 1 0.375285 79.5 7.58999 17.4788 0 
162 1 0.417925 79.5 7.99628 17.5826 0 
170 1 0.419066 79.5 8.43567 17.6633 0 
99 1 0.418162 79.5 8.86832 17.6867 0 
143 1 0.378123 79.5 9.28374 17.6964 0 
280 1 0.376116 79.5 9.67674 17.6886 0 
106 1 0.418321 79.5 10.0879 17.6783 0 
102 1 0.419434 79.5 10.5211 17.7076 0 
40 1 0.417655 79.5 10.7901 17.3426 0 
268 1 0.418081 79.5 10.9624 17.7255 0 
233 1 0.376541 79.5 11.2482 17.4206 0 
242 1 0.419369 79.5 11.6866 17.4829 0 
23 1 0.377532 79.5 12.1299 17.5798 0 
167 1 0.376423 79.5 12.4594 17.3383 0 
297 1 0.418019 79.5 12.9255 17.4276 0 
43 1 0.416658 79.5 13.4051 17.6696 0 
241 1 0.375449 79.5 13.9365 17.6463 0 
244 1 0.377185 79.5 14.4249 17.5514 0 
130 1 0.41741 79.5 14.9727 17.4725 0 
90 1 0.418215 79.5 4.44999 17.8713 0 
1 1 0.416656 79.5 5.04893 17.9393 0 
183 1 0.418934 79.5 5.59314 18.02 0 
243 1 0.376024 79.5 6.10848 18.0928 0 
186 1 0.417704 79.5 6.59002 18.1591 0 
117 1 0.376414 79.5 6.8664 17.7784 0 
210 1 0.417016 79.5 7.05684 18.2207 0 
294 1 0.420196 79.5 7.31977 17.8426 0 
152 1 0.419353 79.5 7.76 17.9401 0 
189 1 0.374207 79.5 8.1996 18.0008 0 
222 1 0.376423 79.5 8.6342 18.0397 0 
51 1 0.378133 79.5 9.05164 18.0562 0 
132 1 0.378247 79.5 9.4513 18.0562 0 
262 1 0.418034 79.5 9.85642 18.053 0 
287 1 0.378509 79.5 10.2681 18.0468 0 
22 1 0.376996 79.5 10.6961 18.0666 0 
151 1 0.377236 79.5 11.4163 17.8086 0 
164 1 0.419166 79.5 11.1438 18.1006 0 
65 1 0.375901 79.5 11.8316 17.8851 0 
181 1 0.377496 79.5 11.6059 18.1996 0 
10 1 0.377297 79.5 12.2312 17.9678 0 
115 1 0.377962 79.5 12.581 17.7797 0 
208 1 0.376279 79.5 12.9884 17.857 0 
240 1 0.417923 79.5 13.278 18.1833 0 
24 1 0.416559 79.5 13.7368 18.0755 0 
185 1 0.37559 79.5 14.2355 18.0229 0 
182 1 0.376421 79.5 14.742 17.9509 0 
179 1 0.419049 79.5 15.4359 17.8235 0 
84 1 0.417941 79.5 4.14848 18.4558 0 
265 1 0.4186 79.5 4.77665 18.4106 0 
263 1 0.375892 79.5 5.33573 18.4407 0 
217 1 0.420187 79.5 5.83744 18.4941 0 
200 1 0.417021 79.5 6.32496 18.5488 0 
188 1 0.417316 79.5 6.81203 18.6009 0 
224 1 0.417151 79.5 7.50044 18.2977 0 
245 1 0.376779 79.5 7.26974 18.6598 0 
177 1 0.417786 79.5 7.95836 18.3478 0 
213 1 0.418946 79.5 8.39761 18.3796 0 
201 1 0.37868 79.5 8.82101 18.3925 0 
108 1 0.37715 79.5 9.23349 18.4013 0 
140 1 0.378892 79.5 9.63206 18.4095 0 
68 1 0.37735 79.5 10.033 18.4084 0 
92 1 0.417624 79.5 10.4475 18.3995 0 
178 1 0.415965 79.5 10.8771 18.4218 0 
190 1 0.417687 79.5 11.3238 18.4757 0 
229 1 0.41843 79.5 11.7892 18.6469 0 
80 1 0.376209 79.5 11.9975 18.2999 0 
31 1 0.376295 79.5 12.4218 18.3067 0 
274 1 0.37582 79.5 12.8158 18.2361 0 
255 1 0.419607 79.5 12.6605 18.6655 0 
79 1 0.376387 79.5 13.0949 18.6089 0 
29 1 0.417393 79.5 13.5546 18.5612 0 
160 1 0.418475 79.5 14.0378 18.4821 0 
191 1 0.419678 79.5 14.5467 18.4301 0 
286 1 0.417076 79.5 15.1063 18.3304 0 
146 1 0.418691 79.5 15.7677 18.3843 0 
298 1 0.374614 79.5 4.52476 18.9 0 
4 1 0.418796 79.5 5.09923 18.8712 0 
71 1 0.377916 79.5 5.61248 18.914 0 
120 1 0.378184 79.5 6.08699 18.9513 0 
148 1 0.418606 79.5 6.55411 18.9845 0 
122 1 0.41785 79.5 7.03416 19.0172 0 
163 1 0.376966 79.5 7.48841 19.0553 0 
42 1 0.418538 79.5 7.71314 18.7024 0 
129 1 0.417621 79.5 7.93385 19.082 0 
97 1 0.377275 79.5 8.16338 18.7307 0 
75 1 0.376447 79.5 8.3589 19.0859 0 
261 1 0.377169 79.5 8.58115 18.7457 0 
184 1 0.417741 79.5 8.77952 19.106 0 
59 1 0.419658 79.5 8.99833 18.7498 0 
118 1 0.41851 79.5 9.41603 18.7611 0 
69 1 0.376926 79.5 9.81237 18.751 0 
121 1 0.418093 79.5 9.98849 19.1046 0 
94 1 0.419162 79.5 10.2204 18.7584 0 
192 1 0.418338 79.5 10.6386 18.7688 0 
58 1 0.415805 79.5 11.051 18.799 0 
155 1 0.37768 79.5 11.4492 18.8483 0 
9 1 0.378113 79.5 12.2194 18.6738 0 
127 1 0.417806 79.5 12.0232 19.0449 0 
101 1 0.376457 79.5 12.4551 19.0438 0 
272 1 0.378957 79.5 12.9119 19.0189 0 
17 1 0.37517 79.5 13.3494 18.9837 0 
221 1 0.419252 79.5 13.831 18.9488 0 
266 1 0.376034 79.5 14.3111 18.8948 0 
107 1 0.375813 79.5 14.8276 18.8381 0 
173 1 0.377039 79.5 15.3715 18.7961 0 
258 1 0.419432 79.5 4.04792 19.2389 0 
260 1 0.417822 79.5 4.83127 19.32 0 
169 1 0.378453 79.5 5.36696 19.3195 0 
33 1 0.378072 79.5 5.86015 19.3391 0 
135 1 0.377153 79.5 6.32705 19.3747 0 
199 1 0.417759 79.5 6.786 19.4009 0 
166 1 0.418977 79.5 7.26276 19.4123 0 
63 1 0.377654 79.5 7.71003 19.429 0 
38 1 0.377736 79.5 8.14358 19.4441 0 
218 1 0.418811 79.5 8.54871 19.4546 0 
15 1 0.377305 79.5 9.1942 19.1127 0 
87 1 0.377593 79.5 8.97428 19.4545 0 
296 1 0.418792 79.5 9.36924 19.4699 0 
12 1 0.37772 79.5 9.58694 19.1185 0 
253 1 0.415824 79.5 9.78018 19.4634 0 
293 1 0.417075 79.5 10.196 19.4622 0 
276 1 0.417911 79.5 10.4245 19.1225 0 
216 1 0.376432 79.5 10.6135 19.4717 0 
230 1 0.376846 79.5 10.821 19.1447 0 
283 1 0.377483 79.5 10.9996 19.5021 0 
209 1 0.419672 79.5 11.2239 19.1767 0 
89 1 0.376485 79.5 11.4317 19.5131 0 
41 1 0.375472 79.5 11.6409 19.1661 0 
26 1 0.417817 79.5 11.8726 19.4826 0 
302 1 0.377055 79.5 12.2741 19.4183 0 
49 1 0.419815 79.5 12.7066 19.4047 0 
165 1 0.417616 79.5 13.1569 19.4028 0 
282 1 0.416306 79.5 13.6164 19.3789 0 
30 1 0.376677 79.5 14.0888 19.3466 0 
238 1 0.417818 79.5 14.5887 19.2946 0 
174 1 0.419338 79.5 15.1421 19.2626 0 
176 1 0.376448 79.5 15.7955 19.17 0 
212 1 0.41762 79.5 4.44766 19.684 0 
50 1 0.378881 79.5 5.08987 19.7437 0 
123 1 0.416947 79.5 5.60065 19.7473 0 
21 1 0.420824 79.5 6.09864 19.7656 0 
252 1 0.378093 79.5 6.56605 19.789 0 
161 1 0.416955 79.5 7.0272 19.7931 0 
194 1 0.416887 79.5 7.49209 19.7949 0 
301 1 0.41979 79.5 7.93875 19.7952 0 
32 1 0.375477 79.5 8.36059 19.8166 0 
145 1 0.419666 79.5 8.78215 19.802 0 
27 1 0.375782 79.5 9.18596 19.8203 0 
8 1 0.378024 79.5 9.57804 19.8207 0 
133 1 0.418748 79.5 9.98761 19.8161 0 
47 1 0.418289 79.5 10.4121 19.8112 0 
284 1 0.376238 79.5 10.8075 19.8228 0 
285 1 0.37676 79.5 11.2129 19.8206 0 
11 1 0.377588 79.5 11.6469 19.821 0 
288 1 0.377512 79.5 12.0825 19.8176 0 
45 1 0.41618 79.5 12.5002 19.7942 0 
220 1 0.375738 79.5 12.9402 19.8008 0 
3 1 0.376593 79.5 13.3858 19.7928 0 
114 1 0.376368 79.5 13.8494 19.7742 0 
171 1 0.417726 79.5 14.3425 19.7482 0 
83 1 0.419111 79.5 14.8859 19.726 0 
267 1 0.418107 79.5 15.505 19.675 0 
