# LAMMPS data file for rigid bodies

303 atoms

1 atom types

0.0 	 20.0 	 xlo xhi 
0.0 	 20.0 	 ylo yhi 
-1.0 	 1.0 	 zlo zhi 

Atoms

154 1 0.377463 79.5 8.99651 13.7723 0 
248 1 0.417624 79.5 9.5 13.4494 0 
290 1 0.417552 79.5 10.0078 13.7779 0 
142 1 0.376502 79.5 10.5493 13.5153 0 
28 1 0.376324 79.5 11.6826 13.7551 0 
116 1 0.418074 79.5 7.35785 14.218 0 
141 1 0.417537 79.5 7.92176 13.7792 0 
156 1 0.41736 79.5 8.48693 14.0268 0 
137 1 0.377547 79.5 9.4895 14.0697 0 
138 1 0.417163 79.5 10.5 14.103 0 
159 1 0.418141 79.5 11.0679 13.8551 0 
82 1 0.37548 79.5 12.0578 14.2218 0 
5 1 0.417956 79.5 12.6517 14.1094 0 
187 1 0.376835 79.5 6.9014 14.644 0 
271 1 0.419038 79.5 7.94967 14.382 0 
235 1 0.417949 79.5 8.49026 14.5907 0 
172 1 0.377906 79.5 9.00049 14.3316 0 
206 1 0.377502 79.5 9.46696 14.5857 0 
215 1 0.417318 79.5 9.96233 14.3508 0 
246 1 0.419558 79.5 10.4195 14.6452 0 
77 1 0.416408 79.5 10.9508 14.432 0 
195 1 0.376076 79.5 11.4975 14.2858 0 
95 1 0.378511 79.5 12.4661 14.6632 0 
139 1 0.377813 79.5 13.0773 14.5957 0 
211 1 0.376915 79.5 6.46956 15.0381 0 
78 1 0.376793 79.5 7.4578 14.797 0 
300 1 0.417817 79.5 7.98594 14.9197 0 
37 1 0.376521 79.5 8.96973 14.8267 0 
74 1 0.418792 79.5 9.41822 15.0709 0 
55 1 0.377258 79.5 9.90812 14.8588 0 
131 1 0.37743 79.5 10.8425 14.9342 0 
104 1 0.417492 79.5 11.3768 14.7842 0 
60 1 0.378985 79.5 11.9077 14.7244 0 
277 1 0.378085 79.5 12.8418 15.0882 0 
19 1 0.377048 79.5 13.4785 15.031 0 
292 1 0.419322 79.5 6.02086 15.4277 0 
34 1 0.376733 79.5 7.02031 15.1903 0 
56 1 0.417661 79.5 7.54115 15.3179 0 
150 1 0.42017 79.5 8.04394 15.4303 0 
227 1 0.419731 79.5 8.4904 15.1138 0 
231 1 0.418206 79.5 8.95732 15.3155 0 
250 1 0.419005 79.5 9.83715 15.3402 0 
225 1 0.418808 79.5 10.3305 15.1452 0 
270 1 0.377661 79.5 10.7424 15.3835 0 
109 1 0.416555 79.5 11.2405 15.2576 0 
81 1 0.377631 79.5 11.7536 15.1923 0 
57 1 0.417312 79.5 12.2725 15.1464 0 
16 1 0.418857 79.5 13.2039 15.5142 0 
236 1 0.417091 79.5 13.9194 15.4466 0 
180 1 0.4178 79.5 5.63327 15.9096 0 
76 1 0.376361 79.5 6.6174 15.5815 0 
279 1 0.419009 79.5 6.23795 15.9941 0 
61 1 0.416969 79.5 7.14743 15.7025 0 
249 1 0.37714 79.5 7.63665 15.8197 0 
36 1 0.41802 79.5 8.10266 15.9121 0 
91 1 0.375891 79.5 8.50887 15.6042 0 
128 1 0.417636 79.5 8.94027 15.793 0 
14 1 0.378044 79.5 9.38753 15.5556 0 
93 1 0.375858 79.5 9.77844 15.8054 0 
96 1 0.375974 79.5 10.2215 15.6058 0 
144 1 0.417225 79.5 10.6171 15.813 0 
149 1 0.420339 79.5 11.1124 15.7152 0 
86 1 0.418347 79.5 11.6096 15.645 0 
295 1 0.376364 79.5 12.1004 15.6121 0 
110 1 0.376982 79.5 12.4061 15.9986 0 
6 1 0.41784 79.5 12.6261 15.5594 0 
112 1 0.37724 79.5 12.9364 15.9632 0 
205 1 0.417837 79.5 13.566 15.9231 0 
98 1 0.376685 79.5 14.1635 15.9935 0 
70 1 0.418537 79.5 5.26956 16.3914 0 
264 1 0.375728 79.5 5.91066 16.4347 0 
251 1 0.418401 79.5 6.78742 16.0902 0 
103 1 0.376732 79.5 7.29606 16.1895 0 
147 1 0.378206 79.5 7.74176 16.2842 0 
52 1 0.417492 79.5 8.18411 16.377 0 
113 1 0.376209 79.5 8.54875 16.0629 0 
247 1 0.417974 79.5 8.96145 16.2771 0 
226 1 0.418002 79.5 9.35309 16.0154 0 
53 1 0.418687 79.5 9.72327 16.2668 0 
234 1 0.376567 79.5 10.1481 16.0404 0 
275 1 0.375236 79.5 10.5236 16.2343 0 
20 1 0.418644 79.5 10.9741 16.1524 0 
239 1 0.376202 79.5 11.4524 16.079 0 
193 1 0.377638 79.5 11.9192 16.0395 0 
303 1 0.377701 79.5 12.2093 16.41 0 
35 1 0.375085 79.5 12.6971 16.3712 0 
203 1 0.418748 79.5 13.2479 16.3497 0 
256 1 0.417029 79.5 13.8254 16.4206 0 
66 1 0.417743 79.5 14.7517 16.1402 0 
257 1 0.417584 79.5 5.5957 16.8807 0 
62 1 0.419478 79.5 6.46268 16.508 0 
54 1 0.417762 79.5 6.9924 16.5704 0 
223 1 0.377582 79.5 7.4678 16.6539 0 
273 1 0.375407 79.5 7.90467 16.7382 0 
64 1 0.37804 79.5 8.33958 16.813 0 
44 1 0.376441 79.5 8.60614 16.5081 0 
48 1 0.417895 79.5 8.90281 16.8053 0 
259 1 0.416952 79.5 9.32783 16.5156 0 
73 1 0.418056 79.5 9.73597 16.7427 0 
207 1 0.375123 79.5 10.0918 16.4679 0 
39 1 0.417739 79.5 10.4666 16.6408 0 
299 1 0.376562 79.5 10.8658 16.5746 0 
18 1 0.417229 79.5 11.3021 16.4969 0 
153 1 0.418903 79.5 11.5531 16.8791 0 
289 1 0.377045 79.5 11.7507 16.4508 0 
72 1 0.418442 79.5 12.008 16.8339 0 
2 1 0.418632 79.5 12.4773 16.7989 0 
291 1 0.418671 79.5 12.9644 16.7723 0 
43 1 0.416658 79.5 13.4855 16.8143 0 
126 1 0.377564 79.5 14.3728 16.5779 0 
105 1 0.378261 79.5 14.9611 16.7707 0 
90 1 0.418215 79.5 4.94166 16.9205 0 
100 1 0.41738 79.5 6.14973 16.9168 0 
1 1 0.416656 79.5 6.43242 17.3298 0 
88 1 0.377633 79.5 6.71453 16.9566 0 
111 1 0.377387 79.5 7.19951 17.019 0 
85 1 0.378114 79.5 7.64923 17.0906 0 
13 1 0.376492 79.5 8.08512 17.152 0 
196 1 0.417674 79.5 8.55453 17.167 0 
99 1 0.418162 79.5 8.98099 17.2535 0 
281 1 0.419313 79.5 9.33539 16.9536 0 
204 1 0.417908 79.5 9.74286 17.1986 0 
119 1 0.418318 79.5 10.1479 16.9206 0 
134 1 0.377548 79.5 10.6345 17.0044 0 
40 1 0.417655 79.5 11.0966 16.9216 0 
102 1 0.419434 79.5 10.9377 17.3183 0 
46 1 0.377328 79.5 11.3717 17.2821 0 
214 1 0.375802 79.5 11.7987 17.2478 0 
278 1 0.377425 79.5 12.2399 17.2187 0 
237 1 0.377021 79.5 12.6942 17.1994 0 
23 1 0.377532 79.5 13.165 17.1903 0 
167 1 0.376423 79.5 13.6702 17.2645 0 
158 1 0.378408 79.5 14.014 16.9345 0 
182 1 0.376421 79.5 14.536 17.1212 0 
254 1 0.418928 79.5 4.6734 17.4953 0 
183 1 0.418934 79.5 5.33362 17.3649 0 
7 1 0.376836 79.5 5.87439 17.3546 0 
219 1 0.416465 79.5 6.17184 17.7401 0 
136 1 0.377551 79.5 6.94022 17.3771 0 
294 1 0.420196 79.5 6.68147 17.7593 0 
124 1 0.377489 79.5 7.39763 17.4415 0 
175 1 0.375285 79.5 7.83375 17.5027 0 
162 1 0.417925 79.5 8.27081 17.5457 0 
197 1 0.418138 79.5 8.69342 17.6059 0 
67 1 0.375259 79.5 9.10216 17.6763 0 
132 1 0.378247 79.5 9.48824 17.7263 0 
143 1 0.378123 79.5 9.38173 17.3656 0 
125 1 0.417497 79.5 10.1375 17.336 0 
202 1 0.416907 79.5 9.87898 17.6627 0 
228 1 0.377094 79.5 10.3029 17.7134 0 
151 1 0.377236 79.5 10.5305 17.3762 0 
280 1 0.376116 79.5 10.7372 17.7075 0 
268 1 0.418081 79.5 11.1657 17.6745 0 
65 1 0.375901 79.5 11.5931 17.6319 0 
269 1 0.377027 79.5 12.0123 17.6022 0 
10 1 0.377297 79.5 12.449 17.5886 0 
242 1 0.419369 79.5 12.9109 17.5988 0 
115 1 0.377962 79.5 13.3636 17.5897 0 
208 1 0.376279 79.5 13.7615 17.7503 0 
297 1 0.418019 79.5 14.1482 17.4535 0 
130 1 0.41741 79.5 14.6222 17.7099 0 
244 1 0.377185 79.5 15.0542 17.3681 0 
179 1 0.419049 79.5 15.5901 17.6812 0 
265 1 0.4186 79.5 4.24331 18.0026 0 
263 1 0.375892 79.5 5.11249 17.8412 0 
4 1 0.418796 79.5 5.63141 17.8451 0 
243 1 0.376024 79.5 5.9912 18.164 0 
217 1 0.420187 79.5 6.4635 18.1724 0 
152 1 0.419353 79.5 6.93452 18.2144 0 
157 1 0.417922 79.5 7.15173 17.8126 0 
25 1 0.418251 79.5 7.60301 17.8711 0 
170 1 0.419066 79.5 8.04534 17.9248 0 
168 1 0.377281 79.5 8.45654 17.9799 0 
177 1 0.417786 79.5 8.86312 18.0154 0 
261 1 0.377169 79.5 9.28177 18.0602 0 
213 1 0.418946 79.5 9.69466 18.0666 0 
51 1 0.378133 79.5 10.0926 18.0494 0 
198 1 0.418579 79.5 10.5176 18.0475 0 
22 1 0.376996 79.5 10.9492 18.0423 0 
190 1 0.417687 79.5 11.3878 18.0302 0 
181 1 0.377496 79.5 11.7998 17.9857 0 
233 1 0.376541 79.5 12.219 17.9559 0 
31 1 0.376295 79.5 12.6698 17.9599 0 
240 1 0.417923 79.5 13.2028 17.9997 0 
79 1 0.376387 79.5 13.7057 18.1759 0 
185 1 0.37559 79.5 14.172 17.9841 0 
286 1 0.417076 79.5 15.1073 18.0188 0 
84 1 0.417941 79.5 4.77439 18.2442 0 
298 1 0.374614 79.5 5.31861 18.307 0 
260 1 0.417822 79.5 5.73138 18.5296 0 
200 1 0.417021 79.5 6.24088 18.5863 0 
42 1 0.418538 79.5 6.71811 18.6125 0 
232 1 0.41966 79.5 7.38499 18.2656 0 
117 1 0.376414 79.5 7.17994 18.6437 0 
224 1 0.417151 79.5 7.82766 18.3039 0 
222 1 0.376423 79.5 8.25216 18.3406 0 
97 1 0.377275 79.5 8.64183 18.3765 0 
59 1 0.419658 79.5 9.06003 18.3923 0 
140 1 0.378892 79.5 9.48781 18.4158 0 
287 1 0.378509 79.5 9.88306 18.4167 0 
106 1 0.418321 79.5 10.2941 18.4016 0 
178 1 0.415965 79.5 10.7358 18.4011 0 
229 1 0.41843 79.5 11.1576 18.3964 0 
101 1 0.376457 79.5 11.5757 18.3946 0 
255 1 0.419607 79.5 11.9837 18.355 0 
164 1 0.419166 79.5 12.4209 18.324 0 
80 1 0.376209 79.5 12.8778 18.3158 0 
274 1 0.37582 79.5 13.3357 18.42 0 
174 1 0.419338 79.5 13.7114 18.6464 0 
107 1 0.375813 79.5 14.1439 18.4518 0 
191 1 0.419678 79.5 14.6151 18.2714 0 
146 1 0.418691 79.5 15.1013 18.6039 0 
173 1 0.377039 79.5 15.6289 18.3887 0 
258 1 0.419432 79.5 4.38172 18.6845 0 
212 1 0.41762 79.5 4.99691 18.7545 0 
120 1 0.378184 79.5 5.47109 18.9117 0 
148 1 0.418606 79.5 5.97932 18.972 0 
245 1 0.376779 79.5 6.47613 18.9984 0 
186 1 0.417704 79.5 6.94666 19.0157 0 
188 1 0.417316 79.5 7.41361 19.0372 0 
189 1 0.374207 79.5 7.61294 18.6737 0 
201 1 0.37868 79.5 7.84512 19.076 0 
210 1 0.417016 79.5 8.03592 18.7081 0 
108 1 0.37715 79.5 8.4444 18.7358 0 
75 1 0.376447 79.5 8.25838 19.0903 0 
129 1 0.417621 79.5 8.84301 18.7545 0 
184 1 0.417741 79.5 9.27359 18.7512 0 
68 1 0.37735 79.5 9.68307 18.7658 0 
94 1 0.419162 79.5 9.48457 19.11 0 
92 1 0.417624 79.5 10.0799 18.7605 0 
262 1 0.418034 79.5 10.5164 18.7546 0 
276 1 0.417911 79.5 10.3021 19.1075 0 
192 1 0.418338 79.5 10.9351 18.7714 0 
58 1 0.415805 79.5 11.3565 18.766 0 
155 1 0.37768 79.5 11.7657 18.7481 0 
302 1 0.377055 79.5 11.9488 19.0947 0 
9 1 0.378113 79.5 12.1725 18.7247 0 
127 1 0.417806 79.5 12.3892 19.0789 0 
29 1 0.417393 79.5 12.6148 18.6999 0 
24 1 0.416559 79.5 12.8487 19.0809 0 
272 1 0.378957 79.5 13.0473 18.698 0 
221 1 0.419252 79.5 13.3292 19.014 0 
17 1 0.37517 79.5 13.7583 19.0753 0 
266 1 0.376034 79.5 14.172 18.9138 0 
241 1 0.375449 79.5 14.6115 18.7829 0 
176 1 0.376448 79.5 15.55 19.0081 0 
71 1 0.377916 79.5 4.08047 19.2036 0 
169 1 0.378453 79.5 4.68476 19.1982 0 
135 1 0.377153 79.5 5.19672 19.2923 0 
199 1 0.417759 79.5 5.69872 19.3577 0 
166 1 0.418977 79.5 6.22593 19.3842 0 
122 1 0.41785 79.5 6.70066 19.4014 0 
301 1 0.41979 79.5 7.17991 19.412 0 
163 1 0.376966 79.5 7.63401 19.4234 0 
63 1 0.377654 79.5 8.06189 19.4398 0 
15 1 0.377305 79.5 8.65507 19.118 0 
38 1 0.377736 79.5 8.46229 19.4543 0 
87 1 0.377593 79.5 8.88176 19.4647 0 
118 1 0.41851 79.5 9.0667 19.1145 0 
12 1 0.37772 79.5 9.27704 19.468 0 
296 1 0.418792 79.5 9.69027 19.4675 0 
69 1 0.376926 79.5 9.89049 19.1186 0 
121 1 0.418093 79.5 10.1004 19.4677 0 
293 1 0.417075 79.5 10.5225 19.4537 0 
216 1 0.376432 79.5 10.7218 19.1122 0 
284 1 0.376238 79.5 10.9243 19.4563 0 
283 1 0.377483 79.5 11.1268 19.1216 0 
209 1 0.419672 79.5 11.3281 19.4682 0 
41 1 0.375472 79.5 11.543 19.1146 0 
230 1 0.376846 79.5 11.7381 19.4527 0 
49 1 0.419815 79.5 12.171 19.4468 0 
165 1 0.417616 79.5 12.621 19.462 0 
45 1 0.41618 79.5 13.0933 19.4411 0 
3 1 0.376593 79.5 13.5385 19.4433 0 
282 1 0.416306 79.5 14.0435 19.3996 0 
30 1 0.376677 79.5 14.514 19.2756 0 
160 1 0.418475 79.5 15.016 19.1668 0 
267 1 0.418107 79.5 15.9337 19.5035 0 
50 1 0.378881 79.5 4.38479 19.6708 0 
123 1 0.416947 79.5 4.92722 19.709 0 
33 1 0.378072 79.5 5.44671 19.7555 0 
21 1 0.420824 79.5 5.9647 19.7724 0 
252 1 0.378093 79.5 6.46316 19.7916 0 
161 1 0.416955 79.5 6.93454 19.7929 0 
194 1 0.416887 79.5 7.40367 19.7942 0 
218 1 0.418811 79.5 7.84778 19.7948 0 
32 1 0.375477 79.5 8.26409 19.8144 0 
145 1 0.419666 79.5 8.67193 19.801 0 
27 1 0.375782 79.5 9.0789 19.8173 0 
253 1 0.415824 79.5 9.47435 19.8119 0 
8 1 0.378024 79.5 9.89552 19.8212 0 
47 1 0.418289 79.5 10.318 19.814 0 
133 1 0.418748 79.5 10.7363 19.8062 0 
285 1 0.37676 79.5 11.1326 19.818 0 
89 1 0.376485 79.5 11.5308 19.8172 0 
26 1 0.417817 79.5 11.9464 19.8 0 
11 1 0.377588 79.5 12.3888 19.8149 0 
288 1 0.377512 79.5 12.8462 19.8132 0 
114 1 0.376368 79.5 13.3095 19.8121 0 
220 1 0.375738 79.5 13.7923 19.7923 0 
171 1 0.417726 79.5 14.3246 19.7629 0 
83 1 0.419111 79.5 14.8313 19.6971 0 
238 1 0.417818 79.5 15.3666 19.6386 0 
