# LAMMPS data file for rigid bodies

303 atoms

1 atom types

0.0 	 20.0 	 xlo xhi 
0.0 	 20.0 	 ylo yhi 
-1.0 	 1.0 	 zlo zhi 

Atoms

142 1 0.376502 79.5 10.4559 13.3234 0 
156 1 0.41736 79.5 8.29751 13.7163 0 
141 1 0.417537 79.5 8.92465 13.7096 0 
248 1 0.417624 79.5 9.51597 13.6869 0 
28 1 0.376324 79.5 11.1706 13.4395 0 
154 1 0.377463 79.5 9.24198 14.2168 0 
290 1 0.417552 79.5 10.091 13.7846 0 
159 1 0.418141 79.5 10.7235 13.8435 0 
82 1 0.37548 79.5 11.3243 13.9708 0 
5 1 0.417956 79.5 11.9103 13.9819 0 
139 1 0.377813 79.5 12.501 14.1396 0 
187 1 0.376835 79.5 6.86752 14.5572 0 
116 1 0.418074 79.5 7.44819 14.2582 0 
271 1 0.419038 79.5 8.05424 14.2513 0 
172 1 0.377906 79.5 8.66502 14.2312 0 
137 1 0.377547 79.5 9.77434 14.2449 0 
138 1 0.417163 79.5 10.3698 14.2763 0 
77 1 0.416408 79.5 10.9435 14.3593 0 
104 1 0.417492 79.5 11.53 14.4685 0 
195 1 0.376076 79.5 12.0726 14.571 0 
34 1 0.376733 79.5 6.42805 14.9518 0 
78 1 0.376793 79.5 7.34148 14.8419 0 
56 1 0.417661 79.5 7.84722 14.7843 0 
300 1 0.417817 79.5 8.39716 14.7066 0 
235 1 0.417949 79.5 8.96789 14.6742 0 
206 1 0.377502 79.5 9.24315 15.0975 0 
55 1 0.377258 79.5 9.5 14.6788 0 
225 1 0.418808 79.5 9.77269 15.0988 0 
215 1 0.417318 79.5 10.0527 14.6886 0 
246 1 0.419558 79.5 10.5995 14.766 0 
109 1 0.416555 79.5 11.1393 14.8473 0 
131 1 0.37743 79.5 11.688 14.9591 0 
81 1 0.377631 79.5 12.2128 15.0649 0 
16 1 0.418857 79.5 12.6534 14.6838 0 
95 1 0.378511 79.5 13.2482 14.7571 0 
211 1 0.376915 79.5 5.95912 15.3342 0 
76 1 0.376361 79.5 6.51239 15.5054 0 
249 1 0.37714 79.5 6.9613 15.169 0 
251 1 0.418401 79.5 7.56927 15.3245 0 
231 1 0.418206 79.5 8.14272 15.2116 0 
227 1 0.419731 79.5 8.69652 15.1259 0 
74 1 0.418792 79.5 8.99788 15.5162 0 
250 1 0.419005 79.5 9.51772 15.499 0 
96 1 0.375974 79.5 10.0088 15.5398 0 
144 1 0.417225 79.5 10.2914 15.1623 0 
270 1 0.377661 79.5 10.7983 15.2283 0 
149 1 0.420339 79.5 11.3156 15.3118 0 
86 1 0.418347 79.5 11.8401 15.4315 0 
60 1 0.378985 79.5 12.7388 15.2051 0 
277 1 0.378085 79.5 13.264 15.3046 0 
19 1 0.377048 79.5 13.833 15.3363 0 
61 1 0.416969 79.5 5.43473 15.7843 0 
292 1 0.419322 79.5 6.01829 15.9042 0 
279 1 0.419009 79.5 7.04047 15.6652 0 
62 1 0.419478 79.5 7.51552 15.8495 0 
150 1 0.42017 79.5 7.97671 15.6982 0 
14 1 0.378044 79.5 8.48085 15.5695 0 
226 1 0.418002 79.5 8.77123 15.9425 0 
37 1 0.376521 79.5 9.28982 15.879 0 
91 1 0.375891 79.5 9.75498 15.9123 0 
259 1 0.416952 79.5 10.2126 15.9563 0 
234 1 0.376567 79.5 10.5 15.5917 0 
193 1 0.377638 79.5 10.9756 15.653 0 
239 1 0.376202 79.5 11.4772 15.752 0 
303 1 0.377701 79.5 11.9801 15.8959 0 
6 1 0.41784 79.5 12.3524 15.5596 0 
57 1 0.417312 79.5 12.8837 15.7053 0 
205 1 0.417837 79.5 13.4362 15.815 0 
256 1 0.417029 79.5 14.0079 15.9096 0 
264 1 0.375728 79.5 5.02022 16.2979 0 
223 1 0.377582 79.5 5.61899 16.3647 0 
100 1 0.41738 79.5 6.14792 16.444 0 
180 1 0.4178 79.5 6.5507 16.021 0 
147 1 0.378206 79.5 7.02641 16.1617 0 
111 1 0.377387 79.5 7.45615 16.3032 0 
103 1 0.376732 79.5 7.8925 16.2553 0 
36 1 0.41802 79.5 8.32017 16.0308 0 
93 1 0.375858 79.5 9.07899 16.237 0 
247 1 0.417974 79.5 9.5132 16.2839 0 
73 1 0.418056 79.5 9.95846 16.35 0 
53 1 0.418687 79.5 10.3992 16.4012 0 
20 1 0.418644 79.5 10.6808 16.0252 0 
72 1 0.418442 79.5 11.1451 16.0804 0 
289 1 0.377045 79.5 11.6186 16.1655 0 
110 1 0.376982 79.5 12.1288 16.3185 0 
295 1 0.376364 79.5 12.4871 16.0253 0 
98 1 0.376685 79.5 13.0061 16.1825 0 
112 1 0.37724 79.5 13.4884 16.3189 0 
236 1 0.417091 79.5 14.5787 16.1732 0 
257 1 0.417584 79.5 5.24873 16.815 0 
7 1 0.376836 79.5 5.81289 16.8699 0 
54 1 0.417762 79.5 6.65872 16.5342 0 
124 1 0.377489 79.5 7.13295 16.629 0 
13 1 0.376492 79.5 7.61558 16.6972 0 
85 1 0.378114 79.5 8.28708 16.4627 0 
273 1 0.375407 79.5 8.02745 16.7747 0 
128 1 0.417636 79.5 8.71997 16.4622 0 
113 1 0.376209 79.5 8.47427 16.8561 0 
44 1 0.376441 79.5 9.21249 16.6139 0 
48 1 0.417895 79.5 9.67389 16.7116 0 
207 1 0.375123 79.5 10.1026 16.782 0 
39 1 0.417739 79.5 10.529 16.8229 0 
275 1 0.375236 79.5 10.837 16.4624 0 
214 1 0.375802 79.5 10.96 16.8693 0 
18 1 0.417229 79.5 11.2789 16.5112 0 
2 1 0.418632 79.5 11.7555 16.5771 0 
278 1 0.377425 79.5 12.2386 16.7505 0 
203 1 0.418748 79.5 12.616 16.4781 0 
126 1 0.377564 79.5 13.083 16.6572 0 
43 1 0.416658 79.5 13.5639 16.8063 0 
66 1 0.417743 79.5 14.0066 16.4783 0 
244 1 0.377185 79.5 14.4897 16.7475 0 
70 1 0.418537 79.5 4.8182 17.2299 0 
254 1 0.418928 79.5 5.46455 17.3174 0 
88 1 0.377633 79.5 6.32598 16.9285 0 
136 1 0.377551 79.5 6.81814 16.9934 0 
162 1 0.417925 79.5 7.2983 17.0511 0 
52 1 0.417492 79.5 7.75931 17.1382 0 
170 1 0.419066 79.5 8.20836 17.1948 0 
64 1 0.37804 79.5 8.64707 17.2668 0 
196 1 0.417674 79.5 8.89908 16.9052 0 
67 1 0.375259 79.5 9.05689 17.3187 0 
281 1 0.419313 79.5 9.35107 17.0047 0 
134 1 0.377548 79.5 9.81869 17.1192 0 
204 1 0.417908 79.5 10.2303 17.2018 0 
40 1 0.417655 79.5 10.6548 17.2366 0 
119 1 0.418318 79.5 11.0903 17.2786 0 
153 1 0.418903 79.5 11.4048 16.9318 0 
291 1 0.418671 79.5 11.8642 17.0023 0 
23 1 0.377532 79.5 12.3217 17.1771 0 
35 1 0.375085 79.5 12.6959 16.9378 0 
115 1 0.377962 79.5 13.1531 17.119 0 
297 1 0.418019 79.5 13.6043 17.3018 0 
105 1 0.378261 79.5 14.0417 17.0304 0 
158 1 0.378408 79.5 14.5213 17.2793 0 
179 1 0.419049 79.5 15.0458 16.9253 0 
265 1 0.4186 79.5 5.13545 17.7555 0 
1 1 0.416656 79.5 6.00396 17.3401 0 
25 1 0.418251 79.5 6.52149 17.3739 0 
232 1 0.41966 79.5 7.0143 17.4312 0 
294 1 0.420196 79.5 7.48164 17.5008 0 
175 1 0.375285 79.5 7.93891 17.5566 0 
197 1 0.418138 79.5 8.37141 17.6095 0 
168 1 0.377281 79.5 8.79201 17.6633 0 
202 1 0.416907 79.5 9.2028 17.7042 0 
99 1 0.418162 79.5 9.50885 17.3914 0 
228 1 0.377094 79.5 9.62261 17.7707 0 
125 1 0.417497 79.5 9.95634 17.5504 0 
151 1 0.377236 79.5 10.3697 17.6187 0 
102 1 0.419434 79.5 10.784 17.6378 0 
46 1 0.377328 79.5 11.2185 17.6743 0 
299 1 0.376562 79.5 11.5205 17.3379 0 
181 1 0.377496 79.5 11.6303 17.715 0 
237 1 0.377021 79.5 11.9466 17.3995 0 
233 1 0.376541 79.5 12.0611 17.7587 0 
10 1 0.377297 79.5 12.4238 17.5827 0 
269 1 0.377027 79.5 12.7843 17.3687 0 
240 1 0.417923 79.5 13.1896 17.6182 0 
182 1 0.376421 79.5 13.6303 17.7651 0 
167 1 0.376423 79.5 14.0653 17.533 0 
286 1 0.417076 79.5 15.0428 17.5492 0 
90 1 0.418215 79.5 4.52705 17.7917 0 
219 1 0.416465 79.5 5.71585 17.7951 0 
243 1 0.376024 79.5 6.01641 18.1909 0 
183 1 0.418934 79.5 6.25001 17.7857 0 
217 1 0.420187 79.5 6.51679 18.2139 0 
157 1 0.417922 79.5 6.75637 17.8169 0 
117 1 0.376414 79.5 7.22221 17.8652 0 
224 1 0.417151 79.5 7.68079 17.9101 0 
152 1 0.419353 79.5 8.11126 17.9772 0 
177 1 0.417786 79.5 8.53668 18.0212 0 
222 1 0.376423 79.5 8.94621 18.0493 0 
51 1 0.378133 79.5 9.34475 18.0795 0 
280 1 0.376116 79.5 9.74172 18.1222 0 
198 1 0.418579 79.5 10.1088 17.9713 0 
22 1 0.376996 79.5 10.5286 17.9974 0 
190 1 0.417687 79.5 10.9585 18.0176 0 
65 1 0.375901 79.5 11.3851 18.0444 0 
164 1 0.419166 79.5 11.8305 18.0821 0 
242 1 0.419369 79.5 12.3632 18.0356 0 
31 1 0.376295 79.5 12.7846 17.8269 0 
208 1 0.376279 79.5 13.2107 18.1004 0 
241 1 0.375449 79.5 13.6312 18.1882 0 
79 1 0.376387 79.5 14.0588 18.016 0 
130 1 0.41741 79.5 14.5272 17.8118 0 
191 1 0.419678 79.5 14.9393 18.1847 0 
173 1 0.377039 79.5 15.4587 17.9663 0 
84 1 0.417941 79.5 4.22912 18.3612 0 
263 1 0.375892 79.5 4.89423 18.2567 0 
4 1 0.418796 79.5 5.4228 18.2296 0 
260 1 0.417822 79.5 5.77258 18.5799 0 
186 1 0.417704 79.5 6.29213 18.6043 0 
42 1 0.418538 79.5 6.99246 18.2482 0 
245 1 0.376779 79.5 6.78887 18.6331 0 
210 1 0.417016 79.5 7.44732 18.2704 0 
189 1 0.374207 79.5 7.88891 18.3358 0 
201 1 0.37868 79.5 7.66066 18.6577 0 
143 1 0.378123 79.5 8.2821 18.3908 0 
108 1 0.37715 79.5 8.69594 18.3928 0 
75 1 0.376447 79.5 9.10274 18.4075 0 
261 1 0.377169 79.5 9.5 18.4243 0 
140 1 0.378892 79.5 9.92989 18.4417 0 
213 1 0.418946 79.5 10.3157 18.3606 0 
106 1 0.418321 79.5 10.7309 18.3768 0 
178 1 0.415965 79.5 11.1526 18.3946 0 
268 1 0.418081 79.5 11.58 18.4174 0 
9 1 0.378113 79.5 12.0409 18.4199 0 
255 1 0.419607 79.5 12.4614 18.4433 0 
80 1 0.376209 79.5 12.8186 18.2375 0 
272 1 0.378957 79.5 13.0373 18.5909 0 
274 1 0.37582 79.5 13.4548 18.565 0 
185 1 0.37559 79.5 13.9488 18.4974 0 
160 1 0.418475 79.5 14.4277 18.3569 0 
107 1 0.375813 79.5 15.2546 18.6326 0 
146 1 0.418691 79.5 15.8101 18.4808 0 
212 1 0.41762 79.5 4.66565 18.7447 0 
298 1 0.374614 79.5 5.19341 18.723 0 
135 1 0.377153 79.5 5.57199 18.9927 0 
199 1 0.417759 79.5 6.05788 19.002 0 
166 1 0.418977 79.5 6.56388 19.0028 0 
200 1 0.417021 79.5 7.05704 19.0394 0 
148 1 0.418606 79.5 7.24966 18.6699 0 
188 1 0.417316 79.5 7.65231 19.0588 0 
97 1 0.377275 79.5 8.03604 18.7662 0 
15 1 0.377305 79.5 8.25324 19.0789 0 
132 1 0.378247 79.5 8.45776 18.7399 0 
184 1 0.417741 79.5 8.86996 18.7516 0 
59 1 0.419658 79.5 9.28484 18.7739 0 
92 1 0.417624 79.5 9.70121 18.7638 0 
68 1 0.37735 79.5 10.1281 18.7621 0 
287 1 0.378509 79.5 10.5135 18.7368 0 
276 1 0.417911 79.5 10.3399 19.0974 0 
262 1 0.418034 79.5 10.9163 18.7578 0 
216 1 0.376432 79.5 10.7363 19.1102 0 
192 1 0.418338 79.5 11.3375 18.7739 0 
229 1 0.41843 79.5 11.7921 18.7774 0 
221 1 0.419252 79.5 12.2217 18.8064 0 
266 1 0.376034 79.5 12.6757 18.7824 0 
165 1 0.417616 79.5 13.2767 18.9857 0 
29 1 0.417393 79.5 13.7576 18.9266 0 
24 1 0.416559 79.5 14.2611 18.8659 0 
174 1 0.419338 79.5 14.7622 18.7728 0 
238 1 0.417818 79.5 15.5876 19.0883 0 
258 1 0.419432 79.5 4.16879 19.1195 0 
120 1 0.378184 79.5 4.77553 19.2464 0 
71 1 0.377916 79.5 5.25566 19.3069 0 
33 1 0.378072 79.5 5.79813 19.3869 0 
301 1 0.41979 79.5 6.3101 19.4012 0 
122 1 0.41785 79.5 6.78884 19.4064 0 
163 1 0.376966 79.5 7.2593 19.3902 0 
63 1 0.377654 79.5 7.64887 19.4561 0 
129 1 0.417621 79.5 8.0423 19.4114 0 
118 1 0.41851 79.5 8.6675 19.1141 0 
87 1 0.377593 79.5 8.47214 19.4588 0 
12 1 0.37772 79.5 8.87927 19.462 0 
69 1 0.376926 79.5 9.085 19.1296 0 
8 1 0.378024 79.5 9.29138 19.4668 0 
94 1 0.419162 79.5 9.5 19.1323 0 
27 1 0.375782 79.5 9.71047 19.4693 0 
121 1 0.418093 79.5 9.91701 19.1124 0 
296 1 0.418792 79.5 10.1316 19.4592 0 
293 1 0.417075 79.5 10.5474 19.4577 0 
89 1 0.376485 79.5 10.9395 19.4734 0 
283 1 0.377483 79.5 11.1238 19.1265 0 
209 1 0.419672 79.5 11.3363 19.4803 0 
58 1 0.415805 79.5 11.5568 19.1269 0 
230 1 0.376846 79.5 11.7559 19.4747 0 
155 1 0.37768 79.5 11.986 19.1536 0 
17 1 0.37517 79.5 12.2103 19.4722 0 
101 1 0.376457 79.5 12.4367 19.1458 0 
41 1 0.375472 79.5 12.6493 19.4819 0 
302 1 0.377055 79.5 12.8637 19.1145 0 
49 1 0.419815 79.5 13.113 19.4486 0 
45 1 0.41618 79.5 13.5669 19.3706 0 
127 1 0.417806 79.5 14.0552 19.3238 0 
30 1 0.376677 79.5 14.5496 19.2805 0 
176 1 0.376448 79.5 15.0412 19.2148 0 
169 1 0.378453 79.5 4.42942 19.6657 0 
50 1 0.378881 79.5 4.98151 19.7257 0 
123 1 0.416947 79.5 5.50221 19.7469 0 
21 1 0.420824 79.5 6.03863 19.7797 0 
252 1 0.378093 79.5 6.53589 19.796 0 
161 1 0.416955 79.5 6.99526 19.7916 0 
194 1 0.416887 79.5 7.43127 19.7962 0 
32 1 0.375477 79.5 7.86022 19.8142 0 
218 1 0.418811 79.5 8.26622 19.798 0 
38 1 0.377736 79.5 8.67998 19.8152 0 
145 1 0.419666 79.5 9.08272 19.8037 0 
253 1 0.415824 79.5 9.5 19.8038 0 
47 1 0.418289 79.5 9.91462 19.8094 0 
133 1 0.418748 79.5 10.3395 19.8141 0 
284 1 0.376238 79.5 10.7372 19.8186 0 
285 1 0.37676 79.5 11.1254 19.8201 0 
11 1 0.377588 79.5 11.5448 19.8193 0 
26 1 0.417817 79.5 11.9803 19.8009 0 
220 1 0.375738 79.5 12.4227 19.8156 0 
3 1 0.376593 79.5 12.8755 19.814 0 
114 1 0.376368 79.5 13.3479 19.8049 0 
171 1 0.417726 79.5 13.8194 19.7676 0 
282 1 0.416306 79.5 14.3201 19.7419 0 
288 1 0.377512 79.5 14.8137 19.712 0 
267 1 0.418107 79.5 15.3407 19.6662 0 
83 1 0.419111 79.5 15.9362 19.5837 0 
