# LAMMPS data file for rigid bodies

303 atoms

1 atom types

0.0 	 20.0 	 xlo xhi 
0.0 	 20.0 	 ylo yhi 
-1.0 	 1.0 	 zlo zhi 

Atoms

141 1 0.417537 79.5 8.78383 13.5657 0 
248 1 0.417624 79.5 9.42316 13.5644 0 
142 1 0.376502 79.5 10.0264 13.6115 0 
138 1 0.417163 79.5 10.6339 13.6508 0 
159 1 0.418141 79.5 11.2784 13.7341 0 
156 1 0.41736 79.5 7.97963 13.9243 0 
172 1 0.377906 79.5 8.55232 14.0841 0 
154 1 0.377463 79.5 9.11492 14.1045 0 
290 1 0.417552 79.5 9.66891 14.1073 0 
215 1 0.417318 79.5 10.2422 14.142 0 
77 1 0.416408 79.5 10.8214 14.2193 0 
139 1 0.377813 79.5 11.8891 14.054 0 
187 1 0.376835 79.5 7.02887 14.4263 0 
116 1 0.418074 79.5 7.6231 14.4315 0 
271 1 0.419038 79.5 8.21667 14.5155 0 
235 1 0.417949 79.5 8.80163 14.56 0 
137 1 0.377547 79.5 9.36054 14.57 0 
206 1 0.377502 79.5 9.87595 14.5883 0 
246 1 0.419558 79.5 10.4219 14.6427 0 
82 1 0.37548 79.5 11.3684 14.2962 0 
195 1 0.376076 79.5 11.8802 14.6178 0 
5 1 0.417956 79.5 12.4289 14.3929 0 
277 1 0.378085 79.5 13.1607 14.6389 0 
34 1 0.376733 79.5 6.67169 14.8913 0 
78 1 0.376793 79.5 7.30601 14.9261 0 
300 1 0.417817 79.5 7.88832 14.9505 0 
227 1 0.419731 79.5 8.47925 14.9985 0 
74 1 0.418792 79.5 9.0666 14.999 0 
37 1 0.376521 79.5 9.57037 15.0121 0 
225 1 0.418808 79.5 10.0849 15.0319 0 
131 1 0.37743 79.5 10.9159 14.7422 0 
28 1 0.376324 79.5 11.3904 14.7789 0 
60 1 0.378985 79.5 12.1964 15.0276 0 
95 1 0.378511 79.5 12.6835 14.9048 0 
19 1 0.377048 79.5 13.6214 15.07 0 
292 1 0.419322 79.5 6.27112 15.3565 0 
76 1 0.376361 79.5 6.88117 15.3809 0 
56 1 0.417661 79.5 7.39113 15.4268 0 
150 1 0.42017 79.5 7.88484 15.4492 0 
91 1 0.375891 79.5 8.352 15.4644 0 
231 1 0.418206 79.5 8.82178 15.4271 0 
55 1 0.377258 79.5 9.30723 15.4397 0 
250 1 0.419005 79.5 9.776 15.4451 0 
270 1 0.377661 79.5 10.6108 15.1249 0 
144 1 0.417225 79.5 10.2703 15.4788 0 
109 1 0.416555 79.5 11.1335 15.2131 0 
104 1 0.417492 79.5 11.6937 15.1539 0 
86 1 0.418347 79.5 12.0928 15.536 0 
6 1 0.41784 79.5 12.5885 15.443 0 
205 1 0.417837 79.5 13.1002 15.2791 0 
61 1 0.416969 79.5 5.65083 15.5786 0 
211 1 0.376915 79.5 6.09141 15.9407 0 
279 1 0.419009 79.5 6.62745 15.843 0 
251 1 0.418401 79.5 7.15001 15.8883 0 
249 1 0.37714 79.5 7.64488 15.8993 0 
62 1 0.419478 79.5 8.11851 15.8989 0 
128 1 0.417636 79.5 8.60198 15.8863 0 
226 1 0.418002 79.5 9.06909 15.8616 0 
14 1 0.378044 79.5 9.52443 15.8577 0 
93 1 0.375858 79.5 9.97924 15.8601 0 
234 1 0.376567 79.5 10.4566 15.8905 0 
96 1 0.375974 79.5 10.7411 15.5701 0 
20 1 0.418644 79.5 11.1626 15.6928 0 
149 1 0.420339 79.5 11.6169 15.6346 0 
81 1 0.377631 79.5 12.3672 15.9434 0 
98 1 0.376685 79.5 12.8494 15.8721 0 
57 1 0.417312 79.5 13.3533 15.7533 0 
16 1 0.418857 79.5 13.9104 15.5716 0 
257 1 0.417584 79.5 5.43234 16.1917 0 
264 1 0.375728 79.5 5.93112 16.4349 0 
180 1 0.4178 79.5 6.46955 16.3419 0 
111 1 0.377387 79.5 6.96876 16.3395 0 
103 1 0.376732 79.5 7.45308 16.3165 0 
273 1 0.375407 79.5 7.91158 16.3228 0 
36 1 0.41802 79.5 8.37208 16.3178 0 
44 1 0.376441 79.5 8.82443 16.3029 0 
247 1 0.417974 79.5 9.26311 16.2854 0 
259 1 0.416952 79.5 9.70215 16.2698 0 
53 1 0.418687 79.5 10.1457 16.2624 0 
275 1 0.375236 79.5 10.562 16.278 0 
72 1 0.418442 79.5 10.954 16.101 0 
239 1 0.376202 79.5 11.4329 16.0859 0 
193 1 0.377638 79.5 11.8979 16.021 0 
303 1 0.377701 79.5 11.7068 16.4394 0 
110 1 0.376982 79.5 12.1762 16.3803 0 
295 1 0.376364 79.5 12.6428 16.3255 0 
112 1 0.37724 79.5 13.1373 16.2632 0 
66 1 0.417743 79.5 13.6877 16.166 0 
236 1 0.417091 79.5 14.2738 16.0225 0 
105 1 0.378261 79.5 14.6597 16.4257 0 
90 1 0.418215 79.5 5.12517 16.7222 0 
100 1 0.41738 79.5 5.66493 16.8863 0 
223 1 0.377582 79.5 6.27364 16.7958 0 
85 1 0.378114 79.5 6.76949 16.7719 0 
147 1 0.378206 79.5 7.26066 16.7198 0 
13 1 0.376492 79.5 7.72848 16.7154 0 
113 1 0.376209 79.5 8.17216 16.7281 0 
196 1 0.417674 79.5 8.61708 16.7227 0 
48 1 0.417895 79.5 9.06574 16.7041 0 
67 1 0.375259 79.5 9.49932 16.6863 0 
73 1 0.418056 79.5 9.93699 16.6709 0 
207 1 0.375123 79.5 10.3747 16.6584 0 
18 1 0.417229 79.5 10.8294 16.5849 0 
278 1 0.377425 79.5 11.2604 16.4853 0 
237 1 0.377021 79.5 11.5252 16.8484 0 
2 1 0.418632 79.5 11.9816 16.8 0 
289 1 0.377045 79.5 12.4419 16.7573 0 
35 1 0.375085 79.5 12.9078 16.6991 0 
203 1 0.418748 79.5 13.4436 16.651 0 
256 1 0.417029 79.5 14.0323 16.5798 0 
179 1 0.419049 79.5 15.1556 16.825 0 
265 1 0.4186 79.5 4.50612 16.9659 0 
254 1 0.418928 79.5 4.97613 17.3133 0 
7 1 0.376836 79.5 6.06155 17.2079 0 
54 1 0.417762 79.5 6.54829 17.2144 0 
136 1 0.377551 79.5 7.07049 17.1187 0 
162 1 0.417925 79.5 7.53504 17.1159 0 
52 1 0.417492 79.5 7.99281 17.127 0 
64 1 0.37804 79.5 8.43342 17.1263 0 
170 1 0.419066 79.5 8.86425 17.126 0 
281 1 0.419313 79.5 9.29836 17.0997 0 
99 1 0.418162 79.5 9.73186 17.0624 0 
134 1 0.377548 79.5 10.1869 17.0304 0 
214 1 0.375802 79.5 10.6216 16.9791 0 
39 1 0.417739 79.5 10.8782 17.3054 0 
153 1 0.418903 79.5 11.0943 16.9177 0 
119 1 0.418318 79.5 11.3338 17.282 0 
242 1 0.419369 79.5 11.7747 17.2214 0 
10 1 0.377297 79.5 12.2189 17.1839 0 
269 1 0.377027 79.5 12.6551 17.1385 0 
291 1 0.418671 79.5 13.1246 17.1019 0 
126 1 0.377564 79.5 13.6056 17.0973 0 
244 1 0.377185 79.5 14.0577 17.0764 0 
158 1 0.378408 79.5 14.5359 16.9418 0 
263 1 0.375892 79.5 4.53409 17.7393 0 
70 1 0.418537 79.5 5.50161 17.4158 0 
1 1 0.416656 79.5 5.95384 17.65 0 
88 1 0.377633 79.5 6.42224 17.6937 0 
232 1 0.41966 79.5 6.90634 17.5257 0 
25 1 0.418251 79.5 7.37292 17.5328 0 
124 1 0.377489 79.5 7.81507 17.5312 0 
294 1 0.420196 79.5 8.25441 17.5232 0 
197 1 0.418138 79.5 8.69092 17.5316 0 
168 1 0.377281 79.5 9.11192 17.5113 0 
40 1 0.417655 79.5 9.5315 17.4767 0 
125 1 0.417497 79.5 9.98802 17.4029 0 
228 1 0.377094 79.5 9.80641 17.7747 0 
299 1 0.376562 79.5 10.4349 17.3516 0 
198 1 0.418579 79.5 10.2504 17.7323 0 
106 1 0.418321 79.5 10.6877 17.6882 0 
46 1 0.377328 79.5 11.1178 17.6576 0 
233 1 0.376541 79.5 11.5658 17.6304 0 
181 1 0.377496 79.5 11.9939 17.5932 0 
23 1 0.377532 79.5 12.4245 17.5527 0 
167 1 0.376423 79.5 12.8704 17.5188 0 
43 1 0.416658 79.5 13.3728 17.5217 0 
182 1 0.376421 79.5 13.8534 17.5286 0 
130 1 0.41741 79.5 14.361 17.4781 0 
286 1 0.417076 79.5 14.9084 17.3664 0 
219 1 0.416465 79.5 5.09296 17.8704 0 
217 1 0.420187 79.5 5.5943 17.9996 0 
157 1 0.417922 79.5 6.11605 18.1052 0 
243 1 0.376024 79.5 6.79171 17.9326 0 
117 1 0.376414 79.5 7.21563 17.9342 0 
175 1 0.375285 79.5 7.64301 17.9187 0 
152 1 0.419353 79.5 8.06828 17.9227 0 
177 1 0.417786 79.5 8.50101 17.9379 0 
202 1 0.416907 79.5 8.92515 17.9191 0 
204 1 0.417908 79.5 9.34057 17.8791 0 
132 1 0.378247 79.5 9.65367 18.1198 0 
51 1 0.378133 79.5 10.0617 18.0833 0 
287 1 0.378509 79.5 10.5044 18.0544 0 
151 1 0.377236 79.5 10.9142 18.0305 0 
268 1 0.418081 79.5 11.3447 17.9942 0 
65 1 0.375901 79.5 11.7835 17.974 0 
80 1 0.376209 79.5 12.2067 17.9494 0 
31 1 0.376295 79.5 12.6368 17.9155 0 
297 1 0.418019 79.5 13.1071 17.9004 0 
115 1 0.377962 79.5 13.6274 17.942 0 
208 1 0.376279 79.5 14.1055 17.9389 0 
241 1 0.375449 79.5 14.6318 17.8947 0 
173 1 0.377039 79.5 15.1938 17.816 0 
146 1 0.418691 79.5 15.5811 18.2143 0 
84 1 0.417941 79.5 4.14815 18.2573 0 
183 1 0.418934 79.5 4.74914 18.3222 0 
298 1 0.374614 79.5 5.28972 18.4079 0 
260 1 0.417822 79.5 5.78945 18.4866 0 
200 1 0.417021 79.5 6.54959 18.2707 0 
148 1 0.418606 79.5 6.2576 18.6109 0 
189 1 0.374207 79.5 7.00967 18.3141 0 
42 1 0.418538 79.5 7.45334 18.3107 0 
224 1 0.417151 79.5 7.88955 18.3181 0 
222 1 0.376423 79.5 8.31315 18.3143 0 
143 1 0.378123 79.5 8.73147 18.3142 0 
213 1 0.418946 79.5 9.13994 18.3009 0 
261 1 0.377169 79.5 9.5 18.461 0 
280 1 0.376116 79.5 9.88321 18.4301 0 
178 1 0.415965 79.5 10.3054 18.3963 0 
22 1 0.376996 79.5 10.7226 18.3913 0 
102 1 0.419434 79.5 11.1308 18.3783 0 
164 1 0.419166 79.5 11.5698 18.3563 0 
9 1 0.378113 79.5 11.993 18.3244 0 
272 1 0.378957 79.5 12.4185 18.3081 0 
255 1 0.419607 79.5 12.8591 18.2958 0 
240 1 0.417923 79.5 13.347 18.2944 0 
79 1 0.376387 79.5 13.5607 18.6659 0 
185 1 0.37559 79.5 13.8765 18.3644 0 
191 1 0.419678 79.5 14.3811 18.3506 0 
107 1 0.375813 79.5 14.9227 18.2941 0 
4 1 0.418796 79.5 4.39231 18.8339 0 
258 1 0.419432 79.5 4.99266 18.8291 0 
199 1 0.417759 79.5 5.52206 18.8968 0 
135 1 0.377153 79.5 6.00888 18.9823 0 
166 1 0.418977 79.5 6.50215 19.0128 0 
245 1 0.376779 79.5 6.77041 18.6697 0 
163 1 0.376966 79.5 6.98916 19.049 0 
186 1 0.417704 79.5 7.22882 18.695 0 
63 1 0.377654 79.5 7.44878 19.057 0 
97 1 0.377275 79.5 7.67628 18.699 0 
75 1 0.376447 79.5 7.86947 19.0582 0 
201 1 0.37868 79.5 8.094 18.6867 0 
188 1 0.417316 79.5 8.28163 19.0551 0 
210 1 0.417016 79.5 8.51737 18.6754 0 
59 1 0.419658 79.5 8.69869 19.0618 0 
108 1 0.37715 79.5 8.92812 18.6888 0 
140 1 0.378892 79.5 9.2948 18.7745 0 
68 1 0.37735 79.5 9.68942 18.7872 0 
92 1 0.417624 79.5 10.1022 18.7576 0 
276 1 0.417911 79.5 10.324 19.1075 0 
262 1 0.418034 79.5 10.5309 18.7458 0 
192 1 0.418338 79.5 10.7473 19.1033 0 
155 1 0.37768 79.5 10.9361 18.7459 0 
216 1 0.376432 79.5 11.1442 19.105 0 
229 1 0.41843 79.5 11.3452 18.7436 0 
58 1 0.415805 79.5 11.5627 19.1061 0 
190 1 0.417687 79.5 11.7797 18.7253 0 
101 1 0.376457 79.5 11.9755 19.0938 0 
221 1 0.419252 79.5 12.2039 18.6902 0 
127 1 0.417806 79.5 12.3987 19.0695 0 
266 1 0.376034 79.5 12.636 18.6837 0 
302 1 0.377055 79.5 12.8392 19.0474 0 
274 1 0.37582 79.5 13.0757 18.6707 0 
165 1 0.417616 79.5 13.2922 19.0386 0 
17 1 0.37517 79.5 13.7554 19.0277 0 
29 1 0.417393 79.5 14.1499 18.8075 0 
24 1 0.416559 79.5 14.684 18.7759 0 
160 1 0.418475 79.5 15.2359 18.713 0 
176 1 0.376448 79.5 15.8741 18.749 0 
212 1 0.41762 79.5 4.02821 19.3433 0 
71 1 0.377916 79.5 4.73902 19.2763 0 
120 1 0.378184 79.5 5.26056 19.3056 0 
33 1 0.378072 79.5 5.76359 19.3473 0 
252 1 0.378093 79.5 6.25182 19.3826 0 
301 1 0.41979 79.5 6.73863 19.406 0 
122 1 0.41785 79.5 7.2158 19.4229 0 
218 1 0.418811 79.5 7.65612 19.431 0 
129 1 0.417621 79.5 8.09641 19.4351 0 
184 1 0.417741 79.5 8.51518 19.4486 0 
15 1 0.377305 79.5 8.91133 19.4709 0 
118 1 0.41851 79.5 9.10662 19.1231 0 
12 1 0.37772 79.5 9.29376 19.4819 0 
69 1 0.376926 79.5 9.50115 19.1267 0 
47 1 0.418289 79.5 9.68842 19.4758 0 
94 1 0.419162 79.5 9.90288 19.1214 0 
121 1 0.418093 79.5 10.1237 19.4724 0 
296 1 0.418792 79.5 10.5362 19.4624 0 
89 1 0.376485 79.5 10.9436 19.4598 0 
209 1 0.419672 79.5 11.3425 19.4657 0 
283 1 0.377483 79.5 11.7615 19.4666 0 
230 1 0.376846 79.5 12.1623 19.4449 0 
26 1 0.417817 79.5 12.6136 19.4369 0 
49 1 0.419815 79.5 13.0596 19.4362 0 
45 1 0.41618 79.5 13.53 19.4321 0 
282 1 0.416306 79.5 14.0169 19.3784 0 
174 1 0.419338 79.5 14.4705 19.2465 0 
30 1 0.376677 79.5 14.9731 19.2232 0 
238 1 0.417818 79.5 15.5166 19.1902 0 
169 1 0.378453 79.5 4.4673 19.7014 0 
50 1 0.378881 79.5 5.0004 19.7269 0 
123 1 0.416947 79.5 5.50403 19.7455 0 
21 1 0.420824 79.5 6.00714 19.7656 0 
161 1 0.416955 79.5 6.4973 19.7863 0 
194 1 0.416887 79.5 6.98602 19.7942 0 
32 1 0.375477 79.5 7.44406 19.8127 0 
145 1 0.419666 79.5 7.88676 19.798 0 
38 1 0.377736 79.5 8.31854 19.815 0 
8 1 0.378024 79.5 8.72247 19.8167 0 
87 1 0.377593 79.5 9.11474 19.8187 0 
27 1 0.375782 79.5 9.5 19.8233 0 
253 1 0.415824 79.5 9.91198 19.8191 0 
284 1 0.376238 79.5 10.3336 19.8215 0 
133 1 0.418748 79.5 10.7516 19.8095 0 
285 1 0.37676 79.5 11.1484 19.8181 0 
11 1 0.377588 79.5 11.5475 19.8168 0 
41 1 0.375472 79.5 11.9505 19.8153 0 
293 1 0.417075 79.5 12.3771 19.7972 0 
220 1 0.375738 79.5 12.8279 19.8133 0 
114 1 0.376368 79.5 13.2845 19.8104 0 
288 1 0.377512 79.5 13.7701 19.7959 0 
3 1 0.376593 79.5 14.2502 19.7669 0 
171 1 0.417726 79.5 14.7329 19.7064 0 
267 1 0.418107 79.5 15.2704 19.6906 0 
83 1 0.419111 79.5 15.9048 19.6136 0 
