# LAMMPS data file for rigid bodies

303 atoms

1 atom types

0.0 	 20.0 	 xlo xhi 
0.0 	 20.0 	 ylo yhi 
-1.0 	 1.0 	 zlo zhi 

Atoms

141 1 0.417537 79.5 8.58479 13.6152 0 
248 1 0.417624 79.5 9.38791 13.7077 0 
290 1 0.417552 79.5 9.98788 13.4914 0 
142 1 0.376502 79.5 10.9661 13.7117 0 
156 1 0.41736 79.5 7.83951 13.9333 0 
300 1 0.417817 79.5 8.39789 14.2163 0 
154 1 0.377463 79.5 8.94751 14.0661 0 
215 1 0.417318 79.5 9.84595 14.1097 0 
138 1 0.417163 79.5 10.4152 13.9105 0 
159 1 0.418141 79.5 11.3184 14.1696 0 
82 1 0.37548 79.5 11.8677 13.9896 0 
116 1 0.418074 79.5 7.20914 14.2797 0 
78 1 0.376793 79.5 7.89816 14.5077 0 
137 1 0.377547 79.5 8.84725 14.5744 0 
206 1 0.377502 79.5 9.36863 14.3544 0 
246 1 0.419558 79.5 10.256 14.4831 0 
77 1 0.416408 79.5 10.7813 14.336 0 
195 1 0.376076 79.5 11.5958 14.6258 0 
139 1 0.377813 79.5 12.0903 14.5004 0 
5 1 0.417956 79.5 12.6179 14.2724 0 
292 1 0.419322 79.5 6.41847 15.0949 0 
211 1 0.376915 79.5 6.9469 14.8955 0 
187 1 0.376835 79.5 7.45748 14.7849 0 
34 1 0.376733 79.5 7.89335 15.0457 0 
56 1 0.417661 79.5 8.36466 14.7792 0 
172 1 0.377906 79.5 8.79107 15.0811 0 
235 1 0.417949 79.5 9.26006 14.862 0 
55 1 0.377258 79.5 9.75659 14.6734 0 
225 1 0.418808 79.5 10.1414 15.0023 0 
270 1 0.377661 79.5 10.6233 14.8658 0 
28 1 0.376324 79.5 11.0999 14.7427 0 
60 1 0.378985 79.5 11.9522 15.0181 0 
95 1 0.378511 79.5 12.4546 14.8918 0 
277 1 0.378085 79.5 13.0094 14.7455 0 
16 1 0.418857 79.5 13.8641 15.044 0 
279 1 0.419009 79.5 5.90346 15.4283 0 
61 1 0.416969 79.5 6.93948 15.4607 0 
76 1 0.376361 79.5 7.42669 15.289 0 
249 1 0.37714 79.5 7.85209 15.5378 0 
271 1 0.419038 79.5 8.31953 15.3008 0 
227 1 0.419731 79.5 9.19337 15.3788 0 
74 1 0.418792 79.5 9.65238 15.1757 0 
250 1 0.419005 79.5 10.0198 15.4933 0 
234 1 0.376567 79.5 10.5 15.3393 0 
131 1 0.37743 79.5 10.9574 15.2309 0 
104 1 0.417492 79.5 11.4413 15.119 0 
109 1 0.416555 79.5 11.7841 15.4977 0 
81 1 0.377631 79.5 12.2694 15.4192 0 
6 1 0.41784 79.5 12.7668 15.3117 0 
205 1 0.417837 79.5 13.3149 15.2242 0 
180 1 0.4178 79.5 5.38703 15.8198 0 
251 1 0.418401 79.5 6.45803 15.7131 0 
111 1 0.377387 79.5 6.94505 15.9941 0 
103 1 0.376732 79.5 7.38948 15.7793 0 
231 1 0.418206 79.5 8.2727 15.8009 0 
150 1 0.42017 79.5 8.73733 15.5743 0 
37 1 0.376521 79.5 9.12559 15.8579 0 
14 1 0.378044 79.5 9.56782 15.6696 0 
91 1 0.375891 79.5 9.93146 15.9541 0 
149 1 0.420339 79.5 10.3871 15.7937 0 
239 1 0.376202 79.5 10.8415 15.6817 0 
96 1 0.375974 79.5 11.2937 15.5894 0 
86 1 0.418347 79.5 11.6286 15.9582 0 
193 1 0.377638 79.5 12.104 15.8909 0 
295 1 0.376364 79.5 12.5684 15.8177 0 
57 1 0.417312 79.5 13.0807 15.7452 0 
98 1 0.376685 79.5 13.6324 15.6874 0 
236 1 0.417091 79.5 14.2189 15.5826 0 
264 1 0.375728 79.5 5.53001 16.3665 0 
147 1 0.378206 79.5 5.99508 16.0104 0 
223 1 0.377582 79.5 6.49904 16.2447 0 
85 1 0.378114 79.5 7.37552 16.2621 0 
62 1 0.419478 79.5 7.82005 16.0196 0 
273 1 0.375407 79.5 8.24528 16.2712 0 
128 1 0.417636 79.5 8.6888 16.0538 0 
259 1 0.416952 79.5 9.0821 16.3317 0 
226 1 0.418002 79.5 9.49517 16.1219 0 
53 1 0.418687 79.5 9.84972 16.4046 0 
93 1 0.375858 79.5 10.2787 16.2297 0 
204 1 0.417908 79.5 10.7163 16.1387 0 
144 1 0.417225 79.5 11.1623 16.0426 0 
72 1 0.418442 79.5 11.4588 16.419 0 
20 1 0.418644 79.5 11.925 16.3459 0 
303 1 0.377701 79.5 12.3865 16.2774 0 
110 1 0.376982 79.5 12.8529 16.2071 0 
112 1 0.37724 79.5 13.379 16.1503 0 
256 1 0.417029 79.5 13.9615 16.1351 0 
19 1 0.377048 79.5 14.5278 16.1095 0 
257 1 0.417584 79.5 4.96316 16.5834 0 
7 1 0.376836 79.5 5.48219 16.8838 0 
100 1 0.41738 79.5 6.03163 16.5351 0 
136 1 0.377551 79.5 6.49138 16.7335 0 
88 1 0.377633 79.5 6.94251 16.4771 0 
13 1 0.376492 79.5 7.36006 16.7254 0 
36 1 0.41802 79.5 7.80649 16.4935 0 
113 1 0.376209 79.5 8.22118 16.7083 0 
247 1 0.417974 79.5 8.64727 16.514 0 
44 1 0.376441 79.5 9.04723 16.7766 0 
48 1 0.417895 79.5 9.46558 16.6123 0 
67 1 0.375259 79.5 10.1945 16.6306 0 
207 1 0.375123 79.5 10.6031 16.5629 0 
275 1 0.375236 79.5 11.0214 16.4943 0 
299 1 0.376562 79.5 11.2959 16.8435 0 
278 1 0.377425 79.5 11.7302 16.7825 0 
289 1 0.377045 79.5 12.1864 16.7173 0 
35 1 0.375085 79.5 12.6458 16.6522 0 
203 1 0.418748 79.5 13.1358 16.5943 0 
43 1 0.416658 79.5 13.6624 16.5669 0 
126 1 0.377564 79.5 14.2569 16.6396 0 
66 1 0.417743 79.5 14.8353 16.5959 0 
70 1 0.418537 79.5 4.9345 17.2115 0 
1 1 0.416656 79.5 5.98617 17.046 0 
232 1 0.41966 79.5 6.47203 17.2171 0 
54 1 0.417762 79.5 6.92282 16.9519 0 
162 1 0.417925 79.5 7.33877 17.2031 0 
52 1 0.417492 79.5 7.76829 16.9514 0 
170 1 0.419066 79.5 8.18661 17.1388 0 
196 1 0.417674 79.5 8.62904 16.9557 0 
64 1 0.37804 79.5 9.01653 17.1887 0 
281 1 0.419313 79.5 9.43252 17.0445 0 
73 1 0.418056 79.5 9.88339 16.9056 0 
99 1 0.418162 79.5 9.78929 17.3238 0 
125 1 0.417497 79.5 10.213 17.3279 0 
18 1 0.417229 79.5 10.414 16.9624 0 
119 1 0.418318 79.5 10.695 17.2849 0 
214 1 0.375802 79.5 10.8685 16.8953 0 
269 1 0.377027 79.5 11.1371 17.232 0 
10 1 0.377297 79.5 11.5553 17.1952 0 
153 1 0.418903 79.5 11.9908 17.1403 0 
2 1 0.418632 79.5 12.4578 17.0875 0 
291 1 0.418671 79.5 12.9253 17.0476 0 
182 1 0.376421 79.5 13.399 17.0046 0 
244 1 0.377185 79.5 13.9067 16.9819 0 
158 1 0.378408 79.5 14.5716 17.1282 0 
105 1 0.378261 79.5 15.1644 17.0667 0 
90 1 0.418215 79.5 4.47061 17.7118 0 
254 1 0.418928 79.5 5.50999 17.3997 0 
219 1 0.416465 79.5 6.0235 17.5508 0 
157 1 0.417922 79.5 6.50689 17.6975 0 
124 1 0.377489 79.5 6.92746 17.4191 0 
175 1 0.375285 79.5 7.36691 17.6724 0 
25 1 0.418251 79.5 7.7508 17.4126 0 
152 1 0.419353 79.5 8.15876 17.5798 0 
197 1 0.418138 79.5 8.58008 17.3883 0 
210 1 0.417016 79.5 8.95813 17.5965 0 
168 1 0.377281 79.5 9.37097 17.4603 0 
198 1 0.418579 79.5 9.71665 17.7348 0 
228 1 0.377094 79.5 10.1191 17.7263 0 
40 1 0.417655 79.5 10.5245 17.6708 0 
39 1 0.417739 79.5 10.9778 17.6196 0 
46 1 0.377328 79.5 11.4041 17.5851 0 
65 1 0.375901 79.5 11.8175 17.556 0 
242 1 0.419369 79.5 12.2607 17.5159 0 
237 1 0.377021 79.5 12.7111 17.4814 0 
167 1 0.376423 79.5 13.1636 17.4438 0 
240 1 0.417923 79.5 13.6399 17.4055 0 
115 1 0.377962 79.5 14.1461 17.3721 0 
297 1 0.418019 79.5 14.4525 17.7437 0 
130 1 0.41741 79.5 14.9672 17.5931 0 
179 1 0.419049 79.5 15.5876 17.5521 0 
265 1 0.4186 79.5 5.08582 17.7845 0 
183 1 0.418934 79.5 5.61 17.9252 0 
4 1 0.418796 79.5 6.10007 18.0447 0 
200 1 0.417021 79.5 6.56357 18.1682 0 
294 1 0.420196 79.5 6.97168 17.8579 0 
188 1 0.417316 79.5 7.39373 18.1586 0 
117 1 0.376414 79.5 7.74869 17.8565 0 
177 1 0.417786 79.5 8.15281 18.0048 0 
189 1 0.374207 79.5 8.53404 17.81 0 
202 1 0.416907 79.5 8.88121 18.0116 0 
224 1 0.417151 79.5 9.29966 17.8712 0 
134 1 0.377548 79.5 9.6212 18.1203 0 
280 1 0.376116 79.5 10.0089 18.0941 0 
151 1 0.377236 79.5 10.4038 18.0602 0 
102 1 0.419434 79.5 10.8141 18.0112 0 
106 1 0.418321 79.5 11.241 17.98 0 
233 1 0.376541 79.5 11.6595 17.94 0 
181 1 0.377496 79.5 12.0789 17.9131 0 
31 1 0.376295 79.5 12.5088 17.8845 0 
23 1 0.377532 79.5 12.9578 17.8443 0 
272 1 0.378957 79.5 13.2152 18.2181 0 
274 1 0.37582 79.5 13.416 17.8252 0 
79 1 0.376387 79.5 13.686 18.1909 0 
208 1 0.376279 79.5 13.9073 17.7928 0 
185 1 0.37559 79.5 14.1797 18.1573 0 
286 1 0.417076 79.5 14.7964 18.1442 0 
241 1 0.375449 79.5 15.3449 18.0843 0 
84 1 0.417941 79.5 4.36265 18.6302 0 
298 1 0.374614 79.5 4.76212 18.2281 0 
263 1 0.375892 79.5 5.27814 18.3303 0 
217 1 0.420187 79.5 5.76154 18.4391 0 
148 1 0.418606 79.5 6.25087 18.5292 0 
243 1 0.376024 79.5 6.98307 18.2825 0 
245 1 0.376779 79.5 6.71284 18.6246 0 
186 1 0.417704 79.5 7.17295 18.6441 0 
222 1 0.376423 79.5 7.79989 18.277 0 
42 1 0.418538 79.5 7.60462 18.6406 0 
201 1 0.37868 79.5 8.16808 18.4117 0 
51 1 0.378133 79.5 8.51916 18.2412 0 
132 1 0.378247 79.5 8.85252 18.4215 0 
143 1 0.378123 79.5 9.19694 18.2698 0 
108 1 0.37715 79.5 9.50606 18.4755 0 
261 1 0.377169 79.5 9.87888 18.4572 0 
178 1 0.415965 79.5 10.2711 18.434 0 
92 1 0.417624 79.5 10.6836 18.4072 0 
287 1 0.378509 79.5 11.0801 18.3763 0 
164 1 0.419166 79.5 11.4817 18.3426 0 
268 1 0.418081 79.5 11.9071 18.3027 0 
80 1 0.376209 79.5 12.327 18.2803 0 
255 1 0.419607 79.5 12.7618 18.2473 0 
29 1 0.417393 79.5 12.5618 18.6665 0 
221 1 0.419252 79.5 13.0085 18.6357 0 
24 1 0.416559 79.5 13.4736 18.5972 0 
176 1 0.376448 79.5 13.9541 18.5676 0 
191 1 0.419678 79.5 14.4668 18.5336 0 
107 1 0.375813 79.5 15.1199 18.5759 0 
173 1 0.377039 79.5 15.7138 18.5474 0 
260 1 0.417822 79.5 4.96513 18.7494 0 
71 1 0.377916 79.5 5.4693 18.8479 0 
199 1 0.417759 79.5 5.95717 18.9205 0 
166 1 0.418977 79.5 6.43643 18.982 0 
63 1 0.377654 79.5 6.90815 19.0171 0 
122 1 0.41785 79.5 7.36327 19.041 0 
163 1 0.376966 79.5 7.78335 19.0738 0 
97 1 0.377275 79.5 8.00627 18.7527 0 
75 1 0.376447 79.5 8.21426 19.0824 0 
59 1 0.419658 79.5 8.44971 18.7008 0 
140 1 0.378892 79.5 8.83732 18.7924 0 
213 1 0.418946 79.5 9.23117 18.7524 0 
68 1 0.37735 79.5 9.6859 18.8021 0 
262 1 0.418034 79.5 10.0827 18.8116 0 
276 1 0.417911 79.5 10.498 18.7901 0 
192 1 0.418338 79.5 10.9118 18.7635 0 
22 1 0.376996 79.5 11.306 18.7339 0 
58 1 0.415805 79.5 11.5099 19.0888 0 
229 1 0.41843 79.5 11.7136 18.7112 0 
155 1 0.37768 79.5 11.9241 19.0841 0 
190 1 0.417687 79.5 12.1336 18.6886 0 
9 1 0.378113 79.5 12.3404 19.0589 0 
101 1 0.376457 79.5 12.7787 19.0428 0 
174 1 0.419338 79.5 13.2358 19.0246 0 
282 1 0.416306 79.5 13.7249 18.9866 0 
266 1 0.376034 79.5 14.2099 18.9538 0 
146 1 0.418691 79.5 14.7624 18.9277 0 
160 1 0.418475 79.5 15.4266 19.0559 0 
258 1 0.419432 79.5 4.02709 19.1858 0 
212 1 0.41762 79.5 4.64859 19.192 0 
169 1 0.378453 79.5 5.18946 19.2605 0 
123 1 0.416947 79.5 5.69357 19.3232 0 
135 1 0.377153 79.5 6.17548 19.3759 0 
301 1 0.41979 79.5 6.64267 19.396 0 
194 1 0.416887 79.5 7.10963 19.4155 0 
218 1 0.418811 79.5 7.55164 19.4491 0 
129 1 0.417621 79.5 7.9806 19.4437 0 
118 1 0.41851 79.5 8.39715 19.4694 0 
184 1 0.417741 79.5 8.61869 19.1206 0 
15 1 0.377305 79.5 8.84873 19.4714 0 
94 1 0.419162 79.5 9.04775 19.1293 0 
296 1 0.418792 79.5 9.26195 19.488 0 
121 1 0.418093 79.5 9.46349 19.125 0 
12 1 0.37772 79.5 9.66315 19.4758 0 
69 1 0.376926 79.5 9.86003 19.1383 0 
47 1 0.418289 79.5 10.0822 19.4589 0 
216 1 0.376432 79.5 10.308 19.1384 0 
284 1 0.376238 79.5 10.5 19.4732 0 
283 1 0.377483 79.5 10.6989 19.1337 0 
89 1 0.376485 79.5 10.8827 19.464 0 
230 1 0.376846 79.5 11.0931 19.1161 0 
209 1 0.419672 79.5 11.3053 19.4527 0 
41 1 0.375472 79.5 11.7121 19.4591 0 
127 1 0.417806 79.5 12.1241 19.4482 0 
165 1 0.417616 79.5 12.5596 19.4205 0 
17 1 0.37517 79.5 13.0072 19.4094 0 
45 1 0.41618 79.5 13.4832 19.4056 0 
171 1 0.417726 79.5 13.9696 19.3877 0 
238 1 0.417818 79.5 14.4682 19.3546 0 
30 1 0.376677 79.5 14.9879 19.3569 0 
267 1 0.418107 79.5 15.9024 19.4635 0 
120 1 0.378184 79.5 4.3817 19.6768 0 
50 1 0.378881 79.5 4.92105 19.6987 0 
21 1 0.420824 79.5 5.43323 19.7381 0 
252 1 0.378093 79.5 5.9413 19.7653 0 
33 1 0.378072 79.5 6.40702 19.7852 0 
161 1 0.416955 79.5 6.88094 19.7933 0 
32 1 0.375477 79.5 7.34089 19.8134 0 
38 1 0.377736 79.5 7.78138 19.8146 0 
87 1 0.377593 79.5 8.20082 19.8175 0 
145 1 0.419666 79.5 8.64058 19.8061 0 
27 1 0.375782 79.5 9.05645 19.823 0 
8 1 0.378024 79.5 9.47355 19.8223 0 
253 1 0.415824 79.5 9.87012 19.8113 0 
133 1 0.418748 79.5 10.2935 19.811 0 
285 1 0.37676 79.5 10.689 19.818 0 
293 1 0.417075 79.5 11.085 19.8046 0 
11 1 0.377588 79.5 11.5009 19.816 0 
302 1 0.377055 79.5 11.9049 19.815 0 
220 1 0.375738 79.5 12.3286 19.8139 0 
49 1 0.419815 79.5 12.7754 19.7931 0 
26 1 0.417817 79.5 13.2416 19.7911 0 
114 1 0.376368 79.5 13.7236 19.7908 0 
288 1 0.377512 79.5 14.2138 19.7778 0 
3 1 0.376593 79.5 14.7296 19.7612 0 
83 1 0.419111 79.5 15.3543 19.6941 0 
