# LAMMPS data file for rigid bodies

303 atoms

1 atom types

0.0 	 20.0 	 xlo xhi 
0.0 	 20.0 	 ylo yhi 
-1.0 	 1.0 	 zlo zhi 

Atoms

154 1 0.377463 79.5 8.69519 13.6616 0 
248 1 0.417624 79.5 9.27839 13.4355 0 
142 1 0.376502 79.5 10.3203 13.5754 0 
28 1 0.376324 79.5 10.9313 13.4463 0 
5 1 0.417956 79.5 11.9065 13.7213 0 
141 1 0.417537 79.5 8.1114 13.9682 0 
172 1 0.377906 79.5 8.69245 14.1994 0 
137 1 0.377547 79.5 9.2204 14.0535 0 
290 1 0.417552 79.5 9.76005 13.78 0 
215 1 0.417318 79.5 10.2009 14.1547 0 
138 1 0.417163 79.5 10.7518 13.9979 0 
82 1 0.37548 79.5 11.3232 13.8924 0 
195 1 0.376076 79.5 12.3495 14.1703 0 
187 1 0.376835 79.5 7.07672 14.3645 0 
116 1 0.418074 79.5 7.64846 14.4194 0 
156 1 0.41736 79.5 8.18804 14.5576 0 
235 1 0.417949 79.5 9.19603 14.6028 0 
206 1 0.377502 79.5 9.68208 14.3344 0 
246 1 0.419558 79.5 10.6198 14.5264 0 
77 1 0.416408 79.5 11.1625 14.4203 0 
159 1 0.418141 79.5 11.737 14.3043 0 
139 1 0.377813 79.5 12.7309 14.5894 0 
34 1 0.376733 79.5 6.75549 14.8394 0 
76 1 0.376361 79.5 7.32909 14.9104 0 
78 1 0.376793 79.5 7.85248 14.988 0 
300 1 0.417817 79.5 8.37557 15.0911 0 
271 1 0.419038 79.5 8.69748 14.7012 0 
37 1 0.376521 79.5 9.62753 14.8176 0 
55 1 0.377258 79.5 10.1069 14.6686 0 
225 1 0.418808 79.5 10.499 15.0175 0 
270 1 0.377661 79.5 11.0022 14.9059 0 
131 1 0.37743 79.5 11.5396 14.7968 0 
6 1 0.41784 79.5 12.1325 14.7023 0 
95 1 0.378511 79.5 12.8898 15.0851 0 
19 1 0.377048 79.5 13.3925 14.8474 0 
292 1 0.419322 79.5 5.83011 15.1591 0 
211 1 0.376915 79.5 6.42112 15.2727 0 
249 1 0.37714 79.5 6.9805 15.3498 0 
56 1 0.417661 79.5 7.49699 15.4134 0 
150 1 0.42017 79.5 8.00709 15.4823 0 
227 1 0.419731 79.5 8.9649 15.1272 0 
74 1 0.418792 79.5 9.45697 15.2504 0 
250 1 0.419005 79.5 9.98493 15.1481 0 
144 1 0.417225 79.5 10.3635 15.4851 0 
96 1 0.375974 79.5 10.8592 15.361 0 
109 1 0.416555 79.5 11.3572 15.2566 0 
104 1 0.417492 79.5 11.8818 15.1858 0 
60 1 0.378985 79.5 12.3949 15.1561 0 
205 1 0.417837 79.5 13.258 15.4576 0 
277 1 0.378085 79.5 13.8218 15.3214 0 
279 1 0.419009 79.5 6.0282 15.7253 0 
251 1 0.418401 79.5 6.63822 15.7678 0 
103 1 0.376732 79.5 7.17686 15.8312 0 
147 1 0.378206 79.5 7.67162 15.8885 0 
273 1 0.375407 79.5 8.14266 15.9406 0 
36 1 0.41802 79.5 8.51493 15.5556 0 
231 1 0.418206 79.5 8.99016 15.6107 0 
128 1 0.417636 79.5 9.45005 15.7142 0 
91 1 0.375891 79.5 9.8983 15.5984 0 
234 1 0.376567 79.5 10.2682 15.9351 0 
149 1 0.420339 79.5 10.723 15.8065 0 
20 1 0.418644 79.5 11.2077 15.7184 0 
86 1 0.418347 79.5 11.7006 15.6574 0 
295 1 0.376364 79.5 12.195 15.6137 0 
81 1 0.377631 79.5 12.6955 15.5683 0 
57 1 0.417312 79.5 13.021 15.9534 0 
16 1 0.418857 79.5 13.5976 15.8873 0 
236 1 0.417091 79.5 14.2018 15.8044 0 
264 1 0.375728 79.5 5.08001 16.2389 0 
61 1 0.416969 79.5 5.6737 16.1822 0 
180 1 0.4178 79.5 6.30572 16.2067 0 
62 1 0.419478 79.5 6.86062 16.2453 0 
223 1 0.377582 79.5 7.36793 16.2709 0 
13 1 0.376492 79.5 7.84238 16.3187 0 
52 1 0.417492 79.5 8.30512 16.3797 0 
113 1 0.376209 79.5 8.59111 16.0061 0 
14 1 0.378044 79.5 9.0123 16.0657 0 
44 1 0.376441 79.5 9.41305 16.1428 0 
226 1 0.418002 79.5 9.83464 16.0427 0 
93 1 0.375858 79.5 10.1342 16.3596 0 
275 1 0.375236 79.5 10.5878 16.2373 0 
72 1 0.418442 79.5 11.0491 16.1622 0 
193 1 0.377638 79.5 11.5225 16.0962 0 
239 1 0.376202 79.5 11.9986 16.0423 0 
303 1 0.377701 79.5 12.2774 16.4143 0 
110 1 0.376982 79.5 12.4862 16.0051 0 
35 1 0.375085 79.5 12.7729 16.3814 0 
112 1 0.37724 79.5 13.3161 16.3523 0 
126 1 0.377564 79.5 13.8529 16.3401 0 
98 1 0.376685 79.5 14.3965 16.3437 0 
256 1 0.417029 79.5 14.9843 16.3727 0 
257 1 0.417584 79.5 5.37908 16.7337 0 
100 1 0.41738 79.5 6.0005 16.6434 0 
85 1 0.378114 79.5 6.55791 16.653 0 
124 1 0.377489 79.5 7.08816 16.6721 0 
196 1 0.417674 79.5 7.56245 16.7025 0 
162 1 0.417925 79.5 8.04129 16.7555 0 
247 1 0.417974 79.5 8.75782 16.4499 0 
64 1 0.37804 79.5 8.50506 16.821 0 
48 1 0.417895 79.5 9.20458 16.5193 0 
281 1 0.419313 79.5 8.95497 16.8853 0 
259 1 0.416952 79.5 9.6637 16.4945 0 
53 1 0.418687 79.5 9.97789 16.7703 0 
18 1 0.417229 79.5 10.4588 16.6408 0 
207 1 0.375123 79.5 10.9015 16.5735 0 
214 1 0.375802 79.5 11.3508 16.5016 0 
289 1 0.377045 79.5 11.8119 16.4465 0 
2 1 0.418632 79.5 11.6328 16.8536 0 
278 1 0.377425 79.5 12.0856 16.8171 0 
237 1 0.377021 79.5 12.5452 16.779 0 
291 1 0.418671 79.5 13.0589 16.7671 0 
167 1 0.376423 79.5 13.5864 16.7633 0 
43 1 0.416658 79.5 14.1212 16.8086 0 
70 1 0.418537 79.5 4.76197 16.9292 0 
88 1 0.377633 79.5 5.19152 17.308 0 
54 1 0.417762 79.5 5.75654 17.1152 0 
111 1 0.377387 79.5 6.29268 17.0686 0 
25 1 0.418251 79.5 6.81768 17.0551 0 
175 1 0.375285 79.5 7.3057 17.0942 0 
294 1 0.420196 79.5 7.76793 17.1386 0 
197 1 0.418138 79.5 8.23829 17.1772 0 
168 1 0.377281 79.5 8.67242 17.2301 0 
67 1 0.375259 79.5 9.08745 17.2762 0 
73 1 0.418056 79.5 9.44367 16.908 0 
99 1 0.418162 79.5 9.82086 17.1688 0 
204 1 0.417908 79.5 10.3059 17.0437 0 
134 1 0.377548 79.5 10.7514 16.9638 0 
153 1 0.418903 79.5 11.0334 17.2875 0 
299 1 0.376562 79.5 11.1874 16.8947 0 
10 1 0.377297 79.5 11.4644 17.2526 0 
269 1 0.377027 79.5 11.8965 17.2184 0 
181 1 0.377496 79.5 12.3345 17.1804 0 
23 1 0.377532 79.5 12.7881 17.1477 0 
297 1 0.418019 79.5 13.3388 17.1776 0 
182 1 0.376421 79.5 13.8286 17.2109 0 
244 1 0.377185 79.5 14.3468 17.3102 0 
203 1 0.418748 79.5 14.6825 16.9006 0 
66 1 0.417743 79.5 15.2337 17.1172 0 
254 1 0.418928 79.5 4.67986 17.6312 0 
7 1 0.376836 79.5 5.58962 17.5995 0 
136 1 0.377551 79.5 6.05776 17.5144 0 
232 1 0.41966 79.5 6.56515 17.4688 0 
157 1 0.417922 79.5 7.06282 17.4831 0 
152 1 0.419353 79.5 7.52129 17.5288 0 
177 1 0.417786 79.5 7.98701 17.5589 0 
170 1 0.419066 79.5 8.42908 17.5989 0 
202 1 0.416907 79.5 8.86648 17.6312 0 
228 1 0.377094 79.5 9.27373 17.6911 0 
143 1 0.378123 79.5 9.45921 17.335 0 
125 1 0.417497 79.5 9.695 17.6626 0 
40 1 0.417655 79.5 10.1429 17.4336 0 
39 1 0.417739 79.5 10.5912 17.3624 0 
46 1 0.377328 79.5 10.4468 17.7474 0 
119 1 0.418318 79.5 10.8681 17.6951 0 
102 1 0.419434 79.5 11.2932 17.6514 0 
233 1 0.376541 79.5 11.7144 17.6024 0 
65 1 0.375901 79.5 12.1387 17.5727 0 
80 1 0.376209 79.5 12.5691 17.5491 0 
242 1 0.419369 79.5 13.0304 17.5216 0 
115 1 0.377962 79.5 13.5819 17.6174 0 
208 1 0.376279 79.5 14.0357 17.653 0 
105 1 0.378261 79.5 14.805 17.5328 0 
158 1 0.378408 79.5 15.4617 17.6867 0 
90 1 0.418215 79.5 4.26989 18.134 0 
1 1 0.416656 79.5 5.18301 17.922 0 
183 1 0.418934 79.5 5.75957 18.0461 0 
4 1 0.418796 79.5 6.32645 17.885 0 
217 1 0.420187 79.5 6.84084 17.8867 0 
189 1 0.374207 79.5 7.3003 17.917 0 
188 1 0.417316 79.5 7.75644 17.936 0 
201 1 0.37868 79.5 8.19777 17.9691 0 
224 1 0.417151 79.5 8.63242 18.0008 0 
222 1 0.376423 79.5 9.04997 18.0275 0 
108 1 0.37715 79.5 9.46256 18.0396 0 
51 1 0.378133 79.5 9.83149 18.1164 0 
280 1 0.376116 79.5 10.0576 17.8177 0 
287 1 0.378509 79.5 10.283 18.1158 0 
198 1 0.418579 79.5 10.6953 18.078 0 
151 1 0.377236 79.5 11.101 18.0526 0 
268 1 0.418081 79.5 11.5201 18.0134 0 
164 1 0.419166 79.5 11.9438 17.9693 0 
272 1 0.378957 79.5 12.3719 17.9382 0 
31 1 0.376295 79.5 12.8012 17.923 0 
240 1 0.417923 79.5 13.2619 17.9116 0 
185 1 0.37559 79.5 13.881 18.0717 0 
286 1 0.417076 79.5 14.4323 17.9384 0 
130 1 0.41741 79.5 15.0275 18.0361 0 
265 1 0.4186 79.5 4.81501 18.3549 0 
219 1 0.416465 79.5 5.38633 18.4289 0 
298 1 0.374614 79.5 5.85613 18.605 0 
243 1 0.376024 79.5 6.15004 18.2908 0 
200 1 0.417021 79.5 6.61819 18.2852 0 
117 1 0.376414 79.5 7.08512 18.2937 0 
186 1 0.417704 79.5 7.52985 18.3142 0 
210 1 0.417016 79.5 7.97387 18.3424 0 
213 1 0.418946 79.5 8.40543 18.3628 0 
132 1 0.378247 79.5 8.8335 18.3807 0 
59 1 0.419658 79.5 9.24458 18.3891 0 
261 1 0.377169 79.5 9.6414 18.4441 0 
262 1 0.418034 79.5 10.0602 18.4444 0 
106 1 0.418321 79.5 10.5 18.4469 0 
22 1 0.376996 79.5 10.9082 18.4308 0 
229 1 0.41843 79.5 11.3193 18.4011 0 
9 1 0.378113 79.5 11.7335 18.3797 0 
29 1 0.417393 79.5 12.1587 18.3462 0 
255 1 0.419607 79.5 12.5972 18.3182 0 
274 1 0.37582 79.5 13.0376 18.302 0 
79 1 0.376387 79.5 13.4962 18.2656 0 
174 1 0.419338 79.5 13.7808 18.6062 0 
241 1 0.375449 79.5 14.2025 18.4224 0 
173 1 0.377039 79.5 14.6758 18.3904 0 
179 1 0.419049 79.5 15.5405 18.34 0 
84 1 0.417941 79.5 4.35229 18.796 0 
263 1 0.375892 79.5 5.04449 18.8376 0 
212 1 0.41762 79.5 5.55038 18.9513 0 
135 1 0.377153 79.5 6.07373 19.0295 0 
260 1 0.417822 79.5 6.36057 18.689 0 
120 1 0.378184 79.5 6.5975 19.0598 0 
148 1 0.418606 79.5 6.85106 18.6819 0 
199 1 0.417759 79.5 7.08436 19.0696 0 
42 1 0.418538 79.5 7.32054 18.6939 0 
245 1 0.376779 79.5 7.55117 19.0638 0 
97 1 0.377275 79.5 7.76787 18.7145 0 
163 1 0.376966 79.5 7.98219 19.0794 0 
75 1 0.376447 79.5 8.18552 18.7277 0 
129 1 0.417621 79.5 8.4016 19.0978 0 
184 1 0.417741 79.5 8.61529 18.7392 0 
118 1 0.41851 79.5 9.0326 18.762 0 
140 1 0.378892 79.5 9.4319 18.7605 0 
94 1 0.419162 79.5 9.62545 19.1057 0 
68 1 0.37735 79.5 9.84836 18.7787 0 
92 1 0.417624 79.5 10.2799 18.7986 0 
178 1 0.415965 79.5 10.7072 18.8052 0 
192 1 0.418338 79.5 11.1229 18.7797 0 
155 1 0.37768 79.5 11.5286 18.7591 0 
190 1 0.417687 79.5 11.9474 18.7383 0 
127 1 0.417806 79.5 12.3853 18.7348 0 
41 1 0.375472 79.5 12.1628 19.1052 0 
101 1 0.376457 79.5 12.6153 19.0926 0 
24 1 0.416559 79.5 12.8318 18.7028 0 
221 1 0.419252 79.5 13.0675 19.0825 0 
160 1 0.418475 79.5 13.2955 18.6717 0 
266 1 0.376034 79.5 13.5441 19.0357 0 
30 1 0.376677 79.5 14.0249 18.9752 0 
191 1 0.419678 79.5 14.494 18.8464 0 
146 1 0.418691 79.5 15.0775 18.7189 0 
107 1 0.375813 79.5 15.7896 18.8951 0 
258 1 0.419432 79.5 4.71157 19.2424 0 
71 1 0.377916 79.5 5.2537 19.3282 0 
33 1 0.378072 79.5 5.79831 19.3718 0 
252 1 0.378093 79.5 6.32372 19.3966 0 
166 1 0.418977 79.5 6.82206 19.4304 0 
301 1 0.41979 79.5 7.32386 19.4388 0 
122 1 0.41785 79.5 7.76691 19.4327 0 
63 1 0.377654 79.5 8.20417 19.452 0 
27 1 0.375782 79.5 8.61073 19.4512 0 
15 1 0.377305 79.5 8.82433 19.1172 0 
87 1 0.377593 79.5 9.02535 19.454 0 
12 1 0.37772 79.5 9.22635 19.121 0 
296 1 0.418792 79.5 9.44329 19.4724 0 
276 1 0.417911 79.5 10.0383 19.1311 0 
69 1 0.376926 79.5 9.84001 19.4747 0 
121 1 0.418093 79.5 10.274 19.4651 0 
216 1 0.376432 79.5 10.4894 19.1347 0 
293 1 0.417075 79.5 10.7042 19.4658 0 
89 1 0.376485 79.5 10.9211 19.137 0 
283 1 0.377483 79.5 11.1039 19.4823 0 
230 1 0.376846 79.5 11.3143 19.1302 0 
209 1 0.419672 79.5 11.5142 19.4788 0 
58 1 0.415805 79.5 11.7322 19.1112 0 
302 1 0.377055 79.5 11.9409 19.4591 0 
49 1 0.419815 79.5 12.3946 19.447 0 
17 1 0.37517 79.5 12.8387 19.4599 0 
165 1 0.417616 79.5 13.3158 19.4491 0 
282 1 0.416306 79.5 13.8025 19.3971 0 
171 1 0.417726 79.5 14.3183 19.3427 0 
238 1 0.417818 79.5 14.825 19.2492 0 
176 1 0.376448 79.5 15.3432 19.1924 0 
169 1 0.378453 79.5 4.3458 19.6455 0 
50 1 0.378881 79.5 4.95967 19.7254 0 
123 1 0.416947 79.5 5.51247 19.7483 0 
21 1 0.420824 79.5 6.05114 19.7666 0 
161 1 0.416955 79.5 6.55979 19.7915 0 
194 1 0.416887 79.5 7.07285 19.7955 0 
32 1 0.375477 79.5 7.54077 19.8137 0 
218 1 0.418811 79.5 7.97915 19.7978 0 
38 1 0.377736 79.5 8.39836 19.8139 0 
145 1 0.419666 79.5 8.80154 19.7992 0 
253 1 0.415824 79.5 9.21707 19.8105 0 
8 1 0.378024 79.5 9.63698 19.8212 0 
47 1 0.418289 79.5 10.0472 19.8101 0 
133 1 0.418748 79.5 10.4864 19.8153 0 
285 1 0.37676 79.5 10.8956 19.8194 0 
284 1 0.376238 79.5 11.2961 19.82 0 
11 1 0.377588 79.5 11.7229 19.8177 0 
26 1 0.417817 79.5 12.1563 19.799 0 
114 1 0.376368 79.5 12.6111 19.8138 0 
288 1 0.377512 79.5 13.0655 19.8114 0 
220 1 0.375738 79.5 13.5642 19.803 0 
45 1 0.41618 79.5 14.0756 19.773 0 
3 1 0.376593 79.5 14.5944 19.7431 0 
267 1 0.418107 79.5 15.128 19.6989 0 
83 1 0.419111 79.5 15.7405 19.6047 0 
