# LAMMPS data file for rigid bodies

303 atoms

1 atom types

0.0 	 20.0 	 xlo xhi 
0.0 	 20.0 	 ylo yhi 
-1.0 	 1.0 	 zlo zhi 

Atoms

113 1 0.46 70.0 8.75103 13.6125 0 
70 1 0.46 70.0 9.35876 13.3439 0 
42 1 0.46 70.0 9.81243 13.7119 0 
222 1 0.46 70.0 10.2914 13.3708 0 
75 1 0.46 70.0 11.026 13.4435 0 
267 1 0.46 70.0 12.0965 13.7513 0 
129 1 0.46 70.0 7.5781 14.1429 0 
275 1 0.46 70.0 8.16247 13.88 0 
295 1 0.46 70.0 8.82665 14.1725 0 
7 1 0.46 70.0 9.30233 13.9401 0 
236 1 0.46 70.0 10.1672 14.1018 0 
276 1 0.46 70.0 10.62 13.8398 0 
209 1 0.46 70.0 11.0234 14.1696 0 
202 1 0.46 70.0 11.4673 13.845 0 
237 1 0.46 70.0 12.5862 14.1648 0 
298 1 0.46 70.0 7.00509 14.4204 0 
23 1 0.46 70.0 7.90462 14.5955 0 
192 1 0.46 70.0 8.36868 14.395 0 
19 1 0.46 70.0 9.24218 14.5109 0 
195 1 0.46 70.0 9.69648 14.3031 0 
55 1 0.46 70.0 10.0967 14.6327 0 
253 1 0.46 70.0 10.5642 14.4213 0 
181 1 0.46 70.0 11.3882 14.5143 0 
158 1 0.46 70.0 11.8435 14.2615 0 
102 1 0.46 70.0 12.2406 14.5974 0 
125 1 0.46 70.0 13.0682 14.5339 0 
218 1 0.46 70.0 6.45089 14.7478 0 
139 1 0.46 70.0 6.94714 15.047 0 
90 1 0.46 70.0 7.42956 14.8018 0 
35 1 0.46 70.0 8.33894 14.9287 0 
168 1 0.46 70.0 8.7926 14.723 0 
14 1 0.46 70.0 9.20086 15.0282 0 
187 1 0.46 70.0 9.64282 14.8296 0 
231 1 0.46 70.0 10.4835 14.9394 0 
249 1 0.46 70.0 10.936 14.7373 0 
245 1 0.46 70.0 11.3139 15.0442 0 
84 1 0.46 70.0 11.7721 14.834 0 
227 1 0.46 70.0 12.6469 14.9008 0 
121 1 0.46 70.0 13.5276 14.8995 0 
201 1 0.46 70.0 5.90096 15.1213 0 
28 1 0.46 70.0 6.4578 15.3508 0 
206 1 0.46 70.0 7.41934 15.3382 0 
52 1 0.46 70.0 7.88077 15.128 0 
31 1 0.46 70.0 8.31535 15.4256 0 
205 1 0.46 70.0 8.75891 15.2277 0 
301 1 0.46 70.0 9.16407 15.5126 0 
156 1 0.46 70.0 9.59547 15.3223 0 
290 1 0.46 70.0 10.0352 15.1325 0 
232 1 0.46 70.0 10.4198 15.4235 0 
18 1 0.46 70.0 10.8619 15.2374 0 
264 1 0.46 70.0 11.24 15.5294 0 
128 1 0.46 70.0 11.6961 15.3428 0 
97 1 0.46 70.0 12.164 15.1393 0 
169 1 0.46 70.0 12.5562 15.4365 0 
151 1 0.46 70.0 13.0507 15.208 0 
5 1 0.46 70.0 13.4549 15.527 0 
255 1 0.46 70.0 13.9746 15.2713 0 
149 1 0.46 70.0 5.95902 15.6949 0 
170 1 0.46 70.0 6.48337 15.8872 0 
281 1 0.46 70.0 6.95367 15.581 0 
239 1 0.46 70.0 7.42274 15.8338 0 
94 1 0.46 70.0 7.87018 15.6238 0 
257 1 0.46 70.0 8.30155 15.8983 0 
198 1 0.46 70.0 8.7332 15.7048 0 
182 1 0.46 70.0 9.13466 15.9746 0 
80 1 0.46 70.0 9.55623 15.7896 0 
238 1 0.46 70.0 9.98442 15.6066 0 
258 1 0.46 70.0 10.3649 15.8848 0 
260 1 0.46 70.0 10.7957 15.7075 0 
118 1 0.46 70.0 11.1674 15.9894 0 
137 1 0.46 70.0 11.6155 15.8185 0 
106 1 0.46 70.0 12.0779 15.637 0 
119 1 0.46 70.0 12.4584 15.9287 0 
96 1 0.46 70.0 12.9462 15.7374 0 
203 1 0.46 70.0 13.8546 15.8704 0 
58 1 0.46 70.0 14.405 15.6658 0 
289 1 0.46 70.0 5.45999 16.0118 0 
99 1 0.46 70.0 6.01764 16.2336 0 
41 1 0.46 70.0 6.52092 16.3895 0 
157 1 0.46 70.0 6.97065 16.0735 0 
302 1 0.46 70.0 7.43385 16.3032 0 
256 1 0.46 70.0 7.869 16.0955 0 
294 1 0.46 70.0 8.2886 16.3574 0 
188 1 0.46 70.0 8.71176 16.1639 0 
34 1 0.46 70.0 9.09458 16.4303 0 
207 1 0.46 70.0 9.51574 16.2459 0 
280 1 0.46 70.0 9.93863 16.0636 0 
142 1 0.46 70.0 10.3115 16.3389 0 
112 1 0.46 70.0 10.7359 16.1628 0 
183 1 0.46 70.0 11.1042 16.4429 0 
159 1 0.46 70.0 11.5354 16.2725 0 
50 1 0.46 70.0 11.988 16.106 0 
54 1 0.46 70.0 12.358 16.3934 0 
69 1 0.46 70.0 12.8366 16.2246 0 
175 1 0.46 70.0 13.3344 16.0488 0 
88 1 0.46 70.0 13.717 16.3856 0 
43 1 0.46 70.0 14.2482 16.2431 0 
83 1 0.46 70.0 14.826 16.0875 0 
219 1 0.46 70.0 5.01442 16.4602 0 
261 1 0.46 70.0 5.58042 16.5991 0 
292 1 0.46 70.0 6.09081 16.7466 0 
59 1 0.46 70.0 6.56838 16.8709 0 
103 1 0.46 70.0 6.99606 16.5391 0 
17 1 0.46 70.0 7.44161 16.762 0 
150 1 0.46 70.0 7.86529 16.5548 0 
61 1 0.46 70.0 8.25906 16.814 0 
243 1 0.46 70.0 8.67524 16.6198 0 
2 1 0.46 70.0 9.04911 16.8828 0 
287 1 0.46 70.0 9.46702 16.6976 0 
37 1 0.46 70.0 9.88805 16.5163 0 
105 1 0.46 70.0 10.2569 16.7889 0 
10 1 0.46 70.0 10.6791 16.6147 0 
110 1 0.46 70.0 11.4685 16.7251 0 
223 1 0.46 70.0 11.9003 16.5573 0 
270 1 0.46 70.0 12.2632 16.8431 0 
160 1 0.46 70.0 12.7264 16.685 0 
163 1 0.46 70.0 13.2136 16.5302 0 
263 1 0.46 70.0 13.5836 16.8649 0 
291 1 0.46 70.0 14.0928 16.7512 0 
252 1 0.46 70.0 14.6426 16.6421 0 
250 1 0.46 70.0 15.2628 16.5423 0 
1 1 0.46 70.0 4.58638 16.9827 0 
194 1 0.46 70.0 5.18052 17.0377 0 
130 1 0.46 70.0 5.69605 17.1354 0 
286 1 0.46 70.0 6.17189 17.2413 0 
134 1 0.46 70.0 7.02074 16.9963 0 
211 1 0.46 70.0 7.44158 17.2195 0 
147 1 0.46 70.0 7.84652 17.0122 0 
46 1 0.46 70.0 8.22132 17.2704 0 
271 1 0.46 70.0 8.63387 17.0742 0 
242 1 0.46 70.0 9.00525 17.3329 0 
293 1 0.46 70.0 9.41919 17.1465 0 
235 1 0.46 70.0 9.83688 16.9654 0 
190 1 0.46 70.0 10.2036 17.236 0 
32 1 0.46 70.0 10.6223 17.0633 0 
122 1 0.46 70.0 11.0436 16.8937 0 
8 1 0.46 70.0 11.4042 17.1763 0 
300 1 0.46 70.0 11.8289 17.0093 0 
244 1 0.46 70.0 12.1867 17.2943 0 
254 1 0.46 70.0 12.6251 17.133 0 
82 1 0.46 70.0 13.0952 16.9848 0 
303 1 0.46 70.0 13.455 17.3209 0 
288 1 0.46 70.0 13.9436 17.2294 0 
272 1 0.46 70.0 14.4632 17.1381 0 
179 1 0.46 70.0 15.0468 17.0667 0 
166 1 0.46 70.0 4.83361 17.512 0 
162 1 0.46 70.0 5.38043 17.57 0 
174 1 0.46 70.0 5.88121 17.6453 0 
178 1 0.46 70.0 6.3517 17.7318 0 
111 1 0.46 70.0 6.62017 17.3406 0 
45 1 0.46 70.0 7.06104 17.4498 0 
109 1 0.46 70.0 7.81007 17.4729 0 
120 1 0.46 70.0 8.18937 17.7245 0 
186 1 0.46 70.0 8.59451 17.5273 0 
221 1 0.46 70.0 9.37263 17.5927 0 
76 1 0.46 70.0 9.78672 17.411 0 
234 1 0.46 70.0 10.1505 17.6798 0 
240 1 0.46 70.0 10.5671 17.5084 0 
299 1 0.46 70.0 10.9843 17.3424 0 
165 1 0.46 70.0 11.3412 17.6272 0 
89 1 0.46 70.0 11.7601 17.4608 0 
216 1 0.46 70.0 12.1121 17.744 0 
38 1 0.46 70.0 12.5417 17.583 0 
164 1 0.46 70.0 12.9862 17.4301 0 
9 1 0.46 70.0 13.3402 17.7658 0 
81 1 0.46 70.0 13.806 17.6906 0 
279 1 0.46 70.0 14.2965 17.6139 0 
4 1 0.46 70.0 14.8288 17.5408 0 
152 1 0.46 70.0 15.5126 17.4548 0 
189 1 0.46 70.0 4.4633 17.947 0 
180 1 0.46 70.0 5.07471 18.0138 0 
262 1 0.46 70.0 5.60593 18.0581 0 
53 1 0.46 70.0 6.09448 18.1257 0 
133 1 0.46 70.0 6.55868 18.1965 0 
117 1 0.46 70.0 6.80382 17.814 0 
140 1 0.46 70.0 7.03444 18.2031 0 
197 1 0.46 70.0 7.356 17.7896 0 
114 1 0.46 70.0 7.79028 17.9206 0 
191 1 0.46 70.0 8.14245 18.1907 0 
225 1 0.46 70.0 8.55094 17.9828 0 
247 1 0.46 70.0 8.9609 17.7808 0 
115 1 0.46 70.0 9.32732 18.0364 0 
173 1 0.46 70.0 9.73705 17.8526 0 
6 1 0.46 70.0 10.0951 18.1216 0 
144 1 0.46 70.0 10.5104 17.9484 0 
167 1 0.46 70.0 10.9255 17.7885 0 
100 1 0.46 70.0 11.2778 18.0776 0 
233 1 0.46 70.0 11.6932 17.9145 0 
135 1 0.46 70.0 12.046 18.1966 0 
148 1 0.46 70.0 12.4578 18.0308 0 
64 1 0.46 70.0 12.8938 17.8767 0 
85 1 0.46 70.0 13.232 18.2101 0 
269 1 0.46 70.0 13.6843 18.1422 0 
21 1 0.46 70.0 14.1483 18.08 0 
116 1 0.46 70.0 14.6436 18.0133 0 
153 1 0.46 70.0 15.2053 17.9301 0 
141 1 0.46 70.0 4.14128 18.4754 0 
138 1 0.46 70.0 4.76615 18.4548 0 
16 1 0.46 70.0 5.33438 18.4748 0 
60 1 0.46 70.0 5.83944 18.524 0 
155 1 0.46 70.0 6.31432 18.5822 0 
217 1 0.46 70.0 6.78985 18.594 0 
193 1 0.46 70.0 7.24663 18.6103 0 
40 1 0.46 70.0 7.48439 18.2289 0 
86 1 0.46 70.0 7.70495 18.6135 0 
136 1 0.46 70.0 8.14437 18.6353 0 
92 1 0.46 70.0 8.52685 18.4356 0 
154 1 0.46 70.0 8.89559 18.6636 0 
282 1 0.46 70.0 8.9231 18.2235 0 
177 1 0.46 70.0 9.28412 18.4823 0 
67 1 0.46 70.0 9.68689 18.2902 0 
108 1 0.46 70.0 10.034 18.5664 0 
127 1 0.46 70.0 10.45 18.3799 0 
36 1 0.46 70.0 10.8651 18.2307 0 
230 1 0.46 70.0 11.2105 18.5284 0 
101 1 0.46 70.0 11.6238 18.3683 0 
65 1 0.46 70.0 11.9795 18.6326 0 
15 1 0.46 70.0 12.42 18.5587 0 
126 1 0.46 70.0 12.7892 18.3172 0 
273 1 0.46 70.0 13.0766 18.64 0 
29 1 0.46 70.0 13.5271 18.5847 0 
62 1 0.46 70.0 13.983 18.537 0 
208 1 0.46 70.0 14.4589 18.4823 0 
49 1 0.46 70.0 14.9765 18.4102 0 
56 1 0.46 70.0 15.6113 18.3149 0 
24 1 0.46 70.0 4.4726 18.9415 0 
220 1 0.46 70.0 5.06717 18.8953 0 
204 1 0.46 70.0 5.58686 18.9281 0 
146 1 0.46 70.0 6.07351 18.9721 0 
251 1 0.46 70.0 6.55207 18.9863 0 
161 1 0.46 70.0 7.01086 18.9974 0 
196 1 0.46 70.0 7.46862 19.0049 0 
87 1 0.46 70.0 7.91997 19.0167 0 
143 1 0.46 70.0 8.37613 19.0132 0 
200 1 0.46 70.0 8.80977 19.0629 0 
44 1 0.46 70.0 9.24403 18.9649 0 
33 1 0.46 70.0 9.63394 18.7216 0 
107 1 0.46 70.0 10.0811 19.0655 0 
210 1 0.46 70.0 10.3858 18.7958 0 
47 1 0.46 70.0 10.6633 19.0877 0 
229 1 0.46 70.0 10.7995 18.6668 0 
13 1 0.46 70.0 11.0993 18.9978 0 
39 1 0.46 70.0 11.5166 18.8524 0 
184 1 0.46 70.0 11.9014 19.0494 0 
27 1 0.46 70.0 12.3437 19.003 0 
131 1 0.46 70.0 12.7917 18.982 0 
278 1 0.46 70.0 13.3047 19.0162 0 
73 1 0.46 70.0 13.7626 18.9795 0 
248 1 0.46 70.0 14.2388 18.939 0 
78 1 0.46 70.0 14.7409 18.8883 0 
176 1 0.46 70.0 15.2872 18.8141 0 
57 1 0.46 70.0 15.9237 18.8427 0 
3 1 0.46 70.0 4.05774 19.367 0 
274 1 0.46 70.0 4.81778 19.3333 0 
104 1 0.46 70.0 5.34146 19.3441 0 
12 1 0.46 70.0 5.83657 19.3664 0 
259 1 0.46 70.0 6.31716 19.3805 0 
171 1 0.46 70.0 6.7771 19.3885 0 
98 1 0.46 70.0 7.23445 19.3949 0 
77 1 0.46 70.0 7.6878 19.4023 0 
25 1 0.46 70.0 8.13967 19.4055 0 
283 1 0.46 70.0 8.581 19.4238 0 
185 1 0.46 70.0 9.03643 19.4252 0 
26 1 0.46 70.0 9.65729 19.1194 0 
66 1 0.46 70.0 9.46157 19.4678 0 
215 1 0.46 70.0 9.91722 19.4642 0 
277 1 0.46 70.0 10.3653 19.4212 0 
71 1 0.46 70.0 10.8201 19.4552 0 
63 1 0.46 70.0 11.2538 19.4088 0 
72 1 0.46 70.0 11.6864 19.4153 0 
199 1 0.46 70.0 12.1434 19.4134 0 
285 1 0.46 70.0 12.592 19.3916 0 
297 1 0.46 70.0 13.0464 19.3871 0 
20 1 0.46 70.0 13.5318 19.4017 0 
266 1 0.46 70.0 14.0034 19.3716 0 
296 1 0.46 70.0 14.4932 19.3456 0 
11 1 0.46 70.0 15.003 19.3095 0 
48 1 0.46 70.0 15.544 19.2724 0 
132 1 0.46 70.0 4.49759 19.7291 0 
226 1 0.46 70.0 5.08231 19.7702 0 
74 1 0.46 70.0 5.59706 19.7739 0 
145 1 0.46 70.0 6.08303 19.7777 0 
224 1 0.46 70.0 6.54561 19.7827 0 
214 1 0.46 70.0 7.00311 19.7867 0 
95 1 0.46 70.0 7.45746 19.7915 0 
123 1 0.46 70.0 7.90883 19.7948 0 
22 1 0.46 70.0 8.35476 19.8032 0 
212 1 0.46 70.0 8.80215 19.8059 0 
79 1 0.46 70.0 9.24233 19.8248 0 
51 1 0.46 70.0 9.69627 19.8318 0 
268 1 0.46 70.0 10.1509 19.8193 0 
246 1 0.46 70.0 10.5885 19.8157 0 
172 1 0.46 70.0 11.0406 19.8149 0 
68 1 0.46 70.0 11.4766 19.8028 0 
30 1 0.46 70.0 11.9225 19.8001 0 
93 1 0.46 70.0 12.3753 19.7946 0 
284 1 0.46 70.0 12.826 19.7857 0 
213 1 0.46 70.0 13.2825 19.7833 0 
265 1 0.46 70.0 13.77 19.7855 0 
228 1 0.46 70.0 14.2472 19.7745 0 
91 1 0.46 70.0 14.7485 19.7683 0 
241 1 0.46 70.0 15.286 19.7456 0 
124 1 0.46 70.0 15.9197 19.6652 0 
