# LAMMPS data file for rigid bodies

303 atoms

1 atom types

0.0 	 20.0 	 xlo xhi 
0.0 	 20.0 	 ylo yhi 
-1.0 	 1.0 	 zlo zhi 

Atoms

170 1 0.46 70.0 9.76475 13.2249 0 
52 1 0.46 70.0 8.57595 13.52 0 
58 1 0.46 70.0 9.17738 13.601 0 
238 1 0.46 70.0 10.252 13.6544 0 
84 1 0.46 70.0 10.8096 13.569 0 
24 1 0.46 70.0 11.4184 13.5389 0 
10 1 0.46 70.0 7.69308 13.8885 0 
115 1 0.46 70.0 8.26821 14.0147 0 
219 1 0.46 70.0 8.83696 14.0776 0 
106 1 0.46 70.0 9.70519 13.7892 0 
195 1 0.46 70.0 9.37999 14.1887 0 
59 1 0.46 70.0 10.0194 14.202 0 
249 1 0.46 70.0 10.5611 14.1314 0 
297 1 0.46 70.0 11.0948 14.0839 0 
20 1 0.46 70.0 11.6479 14.0633 0 
166 1 0.46 70.0 12.1922 13.8602 0 
88 1 0.46 70.0 7.30265 14.3551 0 
298 1 0.46 70.0 7.90167 14.4563 0 
70 1 0.46 70.0 8.44633 14.5263 0 
245 1 0.46 70.0 8.94757 14.5873 0 
38 1 0.46 70.0 10.3812 14.6243 0 
226 1 0.46 70.0 10.8816 14.5775 0 
67 1 0.46 70.0 11.4142 14.5423 0 
232 1 0.46 70.0 12.0285 14.4487 0 
129 1 0.46 70.0 12.6474 14.271 0 
32 1 0.46 70.0 6.60619 14.6869 0 
86 1 0.46 70.0 7.13981 14.8767 0 
128 1 0.46 70.0 7.66363 14.9172 0 
108 1 0.46 70.0 8.17404 14.9628 0 
167 1 0.46 70.0 8.66948 15.015 0 
77 1 0.46 70.0 9.15223 15.0701 0 
176 1 0.46 70.0 9.42379 14.6692 0 
62 1 0.46 70.0 9.64667 15.105 0 
295 1 0.46 70.0 9.89278 14.6704 0 
124 1 0.46 70.0 10.1379 15.0925 0 
18 1 0.46 70.0 10.62 15.0535 0 
43 1 0.46 70.0 11.0971 15.0194 0 
71 1 0.46 70.0 11.5739 14.9987 0 
111 1 0.46 70.0 12.0444 14.947 0 
172 1 0.46 70.0 12.5305 14.8195 0 
213 1 0.46 70.0 13.0718 14.7237 0 
57 1 0.46 70.0 13.6518 14.6894 0 
122 1 0.46 70.0 6.27328 15.1979 0 
51 1 0.46 70.0 6.84623 15.3084 0 
262 1 0.46 70.0 7.40245 15.3582 0 
181 1 0.46 70.0 7.91626 15.3915 0 
206 1 0.46 70.0 8.40837 15.4302 0 
272 1 0.46 70.0 8.8903 15.469 0 
257 1 0.46 70.0 9.37821 15.4911 0 
263 1 0.46 70.0 9.88189 15.5052 0 
207 1 0.46 70.0 10.3911 15.4882 0 
300 1 0.46 70.0 10.8766 15.4633 0 
119 1 0.46 70.0 11.3579 15.4431 0 
69 1 0.46 70.0 11.8473 15.4156 0 
82 1 0.46 70.0 12.3464 15.346 0 
242 1 0.46 70.0 12.8534 15.2571 0 
116 1 0.46 70.0 13.4044 15.2381 0 
103 1 0.46 70.0 14.0008 15.2084 0 
276 1 0.46 70.0 5.59417 15.5955 0 
96 1 0.46 70.0 6.13841 15.7369 0 
99 1 0.46 70.0 6.6561 15.775 0 
94 1 0.46 70.0 7.16777 15.7846 0 
291 1 0.46 70.0 7.6716 15.8087 0 
280 1 0.46 70.0 8.15815 15.8378 0 
228 1 0.46 70.0 8.63561 15.8655 0 
7 1 0.46 70.0 9.11795 15.8772 0 
220 1 0.46 70.0 9.61705 15.8814 0 
87 1 0.46 70.0 10.1474 15.877 0 
301 1 0.46 70.0 10.6566 15.8672 0 
198 1 0.46 70.0 11.15 15.8577 0 
236 1 0.46 70.0 11.6365 15.8422 0 
28 1 0.46 70.0 12.1285 15.8066 0 
197 1 0.46 70.0 12.6244 15.7496 0 
178 1 0.46 70.0 13.1345 15.6976 0 
255 1 0.46 70.0 13.7158 15.7222 0 
260 1 0.46 70.0 14.3119 15.7076 0 
85 1 0.46 70.0 5.28135 16.1508 0 
240 1 0.46 70.0 5.85845 16.2013 0 
117 1 0.46 70.0 6.40682 16.222 0 
121 1 0.46 70.0 6.93305 16.2148 0 
143 1 0.46 70.0 7.43053 16.2202 0 
188 1 0.46 70.0 7.90777 16.2412 0 
292 1 0.46 70.0 8.36826 16.2641 0 
239 1 0.46 70.0 8.82507 16.283 0 
74 1 0.46 70.0 9.27646 16.3016 0 
126 1 0.46 70.0 9.7203 16.3166 0 
259 1 0.46 70.0 10.1587 16.3221 0 
4 1 0.46 70.0 10.5973 16.312 0 
283 1 0.46 70.0 11.0401 16.2965 0 
184 1 0.46 70.0 11.4895 16.2745 0 
161 1 0.46 70.0 11.9447 16.24 0 
56 1 0.46 70.0 12.4075 16.2026 0 
177 1 0.46 70.0 12.8866 16.1597 0 
53 1 0.46 70.0 13.3928 16.1224 0 
187 1 0.46 70.0 14.0033 16.2094 0 
21 1 0.46 70.0 14.5926 16.201 0 
41 1 0.46 70.0 4.97492 16.6763 0 
25 1 0.46 70.0 5.5858 16.6711 0 
247 1 0.46 70.0 6.15296 16.6569 0 
229 1 0.46 70.0 6.69953 16.6325 0 
302 1 0.46 70.0 7.20389 16.6293 0 
138 1 0.46 70.0 7.67817 16.6419 0 
215 1 0.46 70.0 8.13661 16.6609 0 
222 1 0.46 70.0 8.59142 16.6774 0 
169 1 0.46 70.0 9.04232 16.6937 0 
50 1 0.46 70.0 9.4898 16.7082 0 
163 1 0.46 70.0 9.93638 16.7177 0 
55 1 0.46 70.0 10.3829 16.7156 0 
282 1 0.46 70.0 10.8287 16.7036 0 
261 1 0.46 70.0 11.2777 16.687 0 
39 1 0.46 70.0 11.7302 16.665 0 
134 1 0.46 70.0 12.186 16.6385 0 
250 1 0.46 70.0 12.6448 16.6075 0 
123 1 0.46 70.0 13.1197 16.5717 0 
139 1 0.46 70.0 13.6201 16.5386 0 
92 1 0.46 70.0 14.2773 16.6984 0 
60 1 0.46 70.0 14.8713 16.6818 0 
72 1 0.46 70.0 4.6642 17.2112 0 
93 1 0.46 70.0 5.3104 17.1422 0 
160 1 0.46 70.0 5.90315 17.0915 0 
199 1 0.46 70.0 6.46981 17.0397 0 
193 1 0.46 70.0 6.98064 17.031 0 
131 1 0.46 70.0 7.45472 17.0419 0 
42 1 0.46 70.0 7.9127 17.0583 0 
101 1 0.46 70.0 8.36715 17.0726 0 
279 1 0.46 70.0 8.818 17.0865 0 
209 1 0.46 70.0 9.26588 17.0985 0 
254 1 0.46 70.0 9.71258 17.1082 0 
256 1 0.46 70.0 10.1606 17.1111 0 
157 1 0.46 70.0 10.6085 17.105 0 
185 1 0.46 70.0 11.0556 17.0927 0 
73 1 0.46 70.0 11.5047 17.0786 0 
54 1 0.46 70.0 11.9568 17.0597 0 
180 1 0.46 70.0 12.412 17.037 0 
270 1 0.46 70.0 12.8702 17.009 0 
202 1 0.46 70.0 13.3428 16.9806 0 
296 1 0.46 70.0 13.8393 16.9428 0 
102 1 0.46 70.0 14.5607 17.1721 0 
252 1 0.46 70.0 15.1682 17.1538 0 
210 1 0.46 70.0 5.04939 17.6276 0 
12 1 0.46 70.0 5.65533 17.5254 0 
294 1 0.46 70.0 6.24401 17.4411 0 
33 1 0.46 70.0 6.75583 17.4301 0 
75 1 0.46 70.0 7.23023 17.4392 0 
179 1 0.46 70.0 7.68849 17.4528 0 
200 1 0.46 70.0 8.14307 17.4646 0 
81 1 0.46 70.0 8.59418 17.4761 0 
135 1 0.46 70.0 9.04283 17.4872 0 
153 1 0.46 70.0 9.48976 17.4971 0 
288 1 0.46 70.0 9.93731 17.5023 0 
36 1 0.46 70.0 10.3852 17.5008 0 
274 1 0.46 70.0 10.8325 17.4925 0 
9 1 0.46 70.0 11.2807 17.4805 0 
246 1 0.46 70.0 11.7305 17.4676 0 
231 1 0.46 70.0 12.1827 17.4523 0 
223 1 0.46 70.0 12.6382 17.4332 0 
130 1 0.46 70.0 13.0967 17.4084 0 
112 1 0.46 70.0 13.5737 17.3814 0 
110 1 0.46 70.0 14.0789 17.3347 0 
127 1 0.46 70.0 13.8135 17.7737 0 
285 1 0.46 70.0 14.3287 17.7238 0 
100 1 0.46 70.0 14.8471 17.6331 0 
290 1 0.46 70.0 15.472 17.6393 0 
158 1 0.46 70.0 4.49617 17.8434 0 
182 1 0.46 70.0 4.95478 18.2108 0 
299 1 0.46 70.0 5.42373 17.9693 0 
234 1 0.46 70.0 6.01849 17.8415 0 
159 1 0.46 70.0 6.52916 17.8272 0 
253 1 0.46 70.0 7.00399 17.8342 0 
95 1 0.46 70.0 7.46255 17.8442 0 
191 1 0.46 70.0 7.91779 17.8537 0 
145 1 0.46 70.0 8.37023 17.8639 0 
289 1 0.46 70.0 8.82033 17.8743 0 
68 1 0.46 70.0 9.26835 17.884 0 
267 1 0.46 70.0 9.71498 17.8911 0 
104 1 0.46 70.0 10.1622 17.8926 0 
190 1 0.46 70.0 10.6096 17.888 0 
258 1 0.46 70.0 11.0568 17.8784 0 
281 1 0.46 70.0 11.5058 17.867 0 
76 1 0.46 70.0 11.9571 17.8547 0 
183 1 0.46 70.0 12.4106 17.8418 0 
235 1 0.46 70.0 12.8672 17.8263 0 
149 1 0.46 70.0 13.0972 18.2177 0 
19 1 0.46 70.0 13.3281 17.8042 0 
79 1 0.46 70.0 13.5646 18.1961 0 
47 1 0.46 70.0 14.0563 18.164 0 
196 1 0.46 70.0 14.5776 18.1242 0 
64 1 0.46 70.0 15.1274 18.096 0 
83 1 0.46 70.0 15.7717 18.1669 0 
48 1 0.46 70.0 4.38844 18.4481 0 
113 1 0.46 70.0 5.42014 18.5081 0 
251 1 0.46 70.0 5.80471 18.2484 0 
2 1 0.46 70.0 6.07089 18.6193 0 
237 1 0.46 70.0 6.30453 18.2252 0 
150 1 0.46 70.0 6.54618 18.6208 0 
174 1 0.46 70.0 6.77635 18.2277 0 
132 1 0.46 70.0 7.00809 18.6237 0 
26 1 0.46 70.0 7.23556 18.2339 0 
34 1 0.46 70.0 7.46584 18.6293 0 
271 1 0.46 70.0 7.6921 18.2417 0 
5 1 0.46 70.0 7.92088 18.6364 0 
66 1 0.46 70.0 8.14592 18.2505 0 
189 1 0.46 70.0 8.37342 18.6442 0 
233 1 0.46 70.0 8.59722 18.2598 0 
264 1 0.46 70.0 8.82363 18.6525 0 
155 1 0.46 70.0 9.04619 18.269 0 
221 1 0.46 70.0 9.27166 18.6607 0 
98 1 0.46 70.0 9.49285 18.2773 0 
192 1 0.46 70.0 9.93957 18.2814 0 
142 1 0.46 70.0 10.3863 18.2798 0 
16 1 0.46 70.0 10.6105 18.664 0 
208 1 0.46 70.0 10.8328 18.2727 0 
6 1 0.46 70.0 11.0572 18.6555 0 
244 1 0.46 70.0 11.2811 18.2629 0 
90 1 0.46 70.0 11.5065 18.6463 0 
40 1 0.46 70.0 11.7316 18.2522 0 
227 1 0.46 70.0 11.9582 18.6368 0 
89 1 0.46 70.0 12.1843 18.241 0 
205 1 0.46 70.0 12.4123 18.6271 0 
212 1 0.46 70.0 12.6394 18.2296 0 
275 1 0.46 70.0 12.8691 18.6171 0 
216 1 0.46 70.0 13.3285 18.6078 0 
156 1 0.46 70.0 13.8012 18.5881 0 
13 1 0.46 70.0 14.2948 18.5584 0 
17 1 0.46 70.0 14.8194 18.5383 0 
204 1 0.46 70.0 15.3844 18.5839 0 
14 1 0.46 70.0 4.01351 18.949 0 
224 1 0.46 70.0 4.86564 18.7384 0 
31 1 0.46 70.0 5.31439 18.9579 0 
211 1 0.46 70.0 5.78902 18.9757 0 
8 1 0.46 70.0 6.30756 19.011 0 
29 1 0.46 70.0 6.77937 19.0138 0 
97 1 0.46 70.0 7.23855 19.0171 0 
148 1 0.46 70.0 7.69479 19.0223 0 
147 1 0.46 70.0 8.14843 19.0284 0 
273 1 0.46 70.0 8.59967 19.0351 0 
277 1 0.46 70.0 9.04858 19.0422 0 
151 1 0.46 70.0 9.71754 18.6672 0 
203 1 0.46 70.0 9.49483 19.0498 0 
118 1 0.46 70.0 10.1639 18.6684 0 
217 1 0.46 70.0 9.94118 19.0536 0 
78 1 0.46 70.0 10.3877 19.0521 0 
107 1 0.46 70.0 10.8337 19.0452 0 
114 1 0.46 70.0 11.2821 19.0372 0 
171 1 0.46 70.0 11.7327 19.0294 0 
162 1 0.46 70.0 12.1856 19.0216 0 
303 1 0.46 70.0 12.6408 19.0135 0 
266 1 0.46 70.0 13.0985 19.0055 0 
278 1 0.46 70.0 13.5605 18.9986 0 
186 1 0.46 70.0 14.0356 18.9823 0 
265 1 0.46 70.0 14.5293 18.9629 0 
15 1 0.46 70.0 15.0465 18.9722 0 
125 1 0.46 70.0 15.8961 18.8411 0 
141 1 0.46 70.0 4.53187 19.1689 0 
11 1 0.46 70.0 5.02446 19.3348 0 
137 1 0.46 70.0 5.55593 19.3841 0 
173 1 0.46 70.0 6.05286 19.3893 0 
269 1 0.46 70.0 6.54428 19.4018 0 
105 1 0.46 70.0 7.00981 19.4051 0 
168 1 0.46 70.0 7.46732 19.4087 0 
230 1 0.46 70.0 7.92216 19.4131 0 
154 1 0.46 70.0 8.37449 19.4179 0 
225 1 0.46 70.0 8.82448 19.4232 0 
218 1 0.46 70.0 9.27241 19.4294 0 
140 1 0.46 70.0 9.71813 19.4355 0 
120 1 0.46 70.0 10.1653 19.4363 0 
286 1 0.46 70.0 10.6124 19.4326 0 
61 1 0.46 70.0 11.059 19.4252 0 
293 1 0.46 70.0 11.5082 19.4191 0 
27 1 0.46 70.0 11.9598 19.4132 0 
165 1 0.46 70.0 12.4137 19.4072 0 
80 1 0.46 70.0 12.87 19.4012 0 
23 1 0.46 70.0 13.3286 19.395 0 
91 1 0.46 70.0 13.7941 19.3903 0 
30 1 0.46 70.0 14.2767 19.377 0 
243 1 0.46 70.0 14.7881 19.3738 0 
44 1 0.46 70.0 15.4572 19.2407 0 
175 1 0.46 70.0 16.0822 19.4524 0 
22 1 0.46 70.0 4.16342 19.631 0 
146 1 0.46 70.0 4.72623 19.7389 0 
194 1 0.46 70.0 5.28327 19.7726 0 
3 1 0.46 70.0 5.80977 19.7791 0 
1 1 0.46 70.0 6.29816 19.7839 0 
136 1 0.46 70.0 6.77754 19.7921 0 
65 1 0.46 70.0 7.23769 19.7956 0 
248 1 0.46 70.0 7.69423 19.7984 0 
35 1 0.46 70.0 8.14781 19.8016 0 
45 1 0.46 70.0 8.59872 19.805 0 
214 1 0.46 70.0 9.0471 19.8087 0 
133 1 0.46 70.0 9.49319 19.8144 0 
268 1 0.46 70.0 9.94132 19.8161 0 
46 1 0.46 70.0 10.3896 19.8153 0 
241 1 0.46 70.0 10.8364 19.8105 0 
49 1 0.46 70.0 11.2846 19.8061 0 
144 1 0.46 70.0 11.735 19.8021 0 
37 1 0.46 70.0 12.1877 19.7982 0 
287 1 0.46 70.0 12.6428 19.7942 0 
164 1 0.46 70.0 13.1004 19.7902 0 
284 1 0.46 70.0 13.5603 19.7857 0 
63 1 0.46 70.0 14.0337 19.7805 0 
201 1 0.46 70.0 14.5276 19.776 0 
152 1 0.46 70.0 15.0716 19.7522 0 
109 1 0.46 70.0 15.5951 19.7341 0 
