# LAMMPS data file for rigid bodies

303 atoms

1 atom types

0.0 	 20.0 	 xlo xhi 
0.0 	 20.0 	 ylo yhi 
-1.0 	 1.0 	 zlo zhi 

Atoms

118 1 0.46 70.0 8.86968 13.6029 0 
36 1 0.46 70.0 9.61295 13.4368 0 
24 1 0.46 70.0 10.4569 13.3723 0 
206 1 0.46 70.0 11.0195 13.5915 0 
50 1 0.46 70.0 6.95823 14.1521 0 
139 1 0.46 70.0 7.96399 13.8185 0 
181 1 0.46 70.0 8.49049 14.0509 0 
66 1 0.46 70.0 9.33876 13.9346 0 
15 1 0.46 70.0 9.77465 14.2124 0 
84 1 0.46 70.0 10.0888 13.8037 0 
53 1 0.46 70.0 10.62 14.0018 0 
153 1 0.46 70.0 11.119 14.2033 0 
200 1 0.46 70.0 11.5523 13.8105 0 
62 1 0.46 70.0 12.0737 14.0348 0 
167 1 0.46 70.0 6.46548 14.6206 0 
70 1 0.46 70.0 7.54764 14.2668 0 
179 1 0.46 70.0 8.08743 14.4368 0 
202 1 0.46 70.0 8.56957 14.6451 0 
274 1 0.46 70.0 8.95477 14.2995 0 
157 1 0.46 70.0 9.39877 14.5392 0 
129 1 0.46 70.0 10.2554 14.3824 0 
13 1 0.46 70.0 10.725 14.5614 0 
127 1 0.46 70.0 11.612 14.4067 0 
288 1 0.46 70.0 12.0987 14.6261 0 
163 1 0.46 70.0 12.5883 14.2753 0 
250 1 0.46 70.0 13.1077 14.5299 0 
21 1 0.46 70.0 5.93557 15.0503 0 
135 1 0.46 70.0 7.11306 14.7091 0 
261 1 0.46 70.0 7.69155 14.8085 0 
277 1 0.46 70.0 8.18841 14.9822 0 
220 1 0.46 70.0 9.028 14.8558 0 
117 1 0.46 70.0 9.49128 15.0422 0 
282 1 0.46 70.0 9.87249 14.7287 0 
107 1 0.46 70.0 10.3381 14.8976 0 
284 1 0.46 70.0 10.7923 15.0709 0 
63 1 0.46 70.0 11.1928 14.7472 0 
31 1 0.46 70.0 11.6585 14.9426 0 
150 1 0.46 70.0 12.5817 14.8579 0 
55 1 0.46 70.0 13.0663 15.1041 0 
236 1 0.46 70.0 13.6286 14.8388 0 
48 1 0.46 70.0 6.27499 15.4897 0 
156 1 0.46 70.0 6.70136 15.1247 0 
11 1 0.46 70.0 6.98349 15.544 0 
51 1 0.46 70.0 7.3277 15.183 0 
10 1 0.46 70.0 7.82191 15.3265 0 
59 1 0.46 70.0 8.29318 15.4849 0 
268 1 0.46 70.0 8.65815 15.1692 0 
172 1 0.46 70.0 9.12107 15.3469 0 
154 1 0.46 70.0 9.58041 15.5129 0 
197 1 0.46 70.0 9.95485 15.2137 0 
298 1 0.46 70.0 10.4064 15.3817 0 
121 1 0.46 70.0 10.846 15.5527 0 
49 1 0.46 70.0 11.2432 15.2515 0 
136 1 0.46 70.0 11.6924 15.4428 0 
99 1 0.46 70.0 12.1203 15.1611 0 
242 1 0.46 70.0 12.5787 15.3876 0 
155 1 0.46 70.0 13.5456 15.4046 0 
101 1 0.46 70.0 14.1624 15.2146 0 
146 1 0.46 70.0 5.73627 15.7148 0 
126 1 0.46 70.0 6.61555 15.8597 0 
19 1 0.46 70.0 7.46327 15.6827 0 
104 1 0.46 70.0 7.92936 15.8118 0 
123 1 0.46 70.0 8.38612 15.9523 0 
103 1 0.46 70.0 8.75524 15.6495 0 
238 1 0.46 70.0 9.22004 15.8053 0 
175 1 0.46 70.0 9.66274 15.9672 0 
25 1 0.46 70.0 10.0283 15.6785 0 
190 1 0.46 70.0 10.4642 15.8455 0 
72 1 0.46 70.0 11.283 15.7297 0 
110 1 0.46 70.0 11.7215 15.9165 0 
130 1 0.46 70.0 12.1378 15.667 0 
241 1 0.46 70.0 12.5761 15.8889 0 
119 1 0.46 70.0 13.0389 15.627 0 
102 1 0.46 70.0 13.4911 15.9335 0 
38 1 0.46 70.0 14.0036 15.7527 0 
264 1 0.46 70.0 5.25978 16.0691 0 
303 1 0.46 70.0 5.73531 16.3781 0 
152 1 0.46 70.0 6.16462 16.0843 0 
82 1 0.46 70.0 6.66442 16.3429 0 
40 1 0.46 70.0 7.08991 16.0403 0 
111 1 0.46 70.0 7.55165 16.1539 0 
189 1 0.46 70.0 8.00141 16.2674 0 
27 1 0.46 70.0 8.51331 16.3899 0 
75 1 0.46 70.0 8.86423 16.0958 0 
125 1 0.46 70.0 9.30609 16.2562 0 
176 1 0.46 70.0 9.73533 16.419 0 
28 1 0.46 70.0 10.0947 16.1328 0 
161 1 0.46 70.0 10.5227 16.3 0 
188 1 0.46 70.0 10.892 16.0145 0 
203 1 0.46 70.0 11.3213 16.188 0 
207 1 0.46 70.0 11.7534 16.3738 0 
224 1 0.46 70.0 12.1575 16.1568 0 
260 1 0.46 70.0 12.5795 16.374 0 
231 1 0.46 70.0 13.016 16.1185 0 
191 1 0.46 70.0 13.4365 16.4341 0 
158 1 0.46 70.0 13.9278 16.2826 0 
61 1 0.46 70.0 14.4815 16.0479 0 
73 1 0.46 70.0 4.77128 16.4656 0 
140 1 0.46 70.0 5.29255 16.7118 0 
213 1 0.46 70.0 6.23715 16.6059 0 
270 1 0.46 70.0 6.69966 16.8199 0 
194 1 0.46 70.0 7.12528 16.5118 0 
64 1 0.46 70.0 7.57342 16.6109 0 
259 1 0.46 70.0 8.16835 16.686 0 
182 1 0.46 70.0 8.60052 16.8385 0 
178 1 0.46 70.0 8.95121 16.5456 0 
180 1 0.46 70.0 9.37986 16.7065 0 
281 1 0.46 70.0 9.80501 16.8686 0 
168 1 0.46 70.0 10.1622 16.5838 0 
249 1 0.46 70.0 10.587 16.751 0 
85 1 0.46 70.0 10.9486 16.4688 0 
232 1 0.46 70.0 11.3733 16.6424 0 
263 1 0.46 70.0 11.7958 16.8246 0 
210 1 0.46 70.0 12.212 16.6419 0 
7 1 0.46 70.0 12.9823 16.5887 0 
233 1 0.46 70.0 13.7736 16.7984 0 
239 1 0.46 70.0 14.2884 16.6547 0 
20 1 0.46 70.0 14.8393 16.495 0 
169 1 0.46 70.0 4.75103 17.0729 0 
230 1 0.46 70.0 5.41616 17.2224 0 
114 1 0.46 70.0 5.82684 16.9067 0 
151 1 0.46 70.0 6.29952 17.1108 0 
252 1 0.46 70.0 6.74301 17.2963 0 
183 1 0.46 70.0 7.1368 16.9714 0 
115 1 0.46 70.0 7.48061 17.2606 0 
227 1 0.46 70.0 7.82724 16.9784 0 
221 1 0.46 70.0 8.25376 17.1344 0 
42 1 0.46 70.0 8.67791 17.2874 0 
29 1 0.46 70.0 9.02738 16.995 0 
267 1 0.46 70.0 9.45112 17.155 0 
271 1 0.46 70.0 9.87323 17.3152 0 
165 1 0.46 70.0 10.2289 17.0318 0 
113 1 0.46 70.0 10.6509 17.2007 0 
71 1 0.46 70.0 11.0081 16.9201 0 
6 1 0.46 70.0 11.4259 17.0941 0 
149 1 0.46 70.0 11.8388 17.2705 0 
67 1 0.46 70.0 12.2558 17.0962 0 
273 1 0.46 70.0 12.6851 16.9351 0 
76 1 0.46 70.0 13.2897 16.9252 0 
173 1 0.46 70.0 13.0587 17.3197 0 
41 1 0.46 70.0 13.5835 17.2791 0 
262 1 0.46 70.0 14.0862 17.1772 0 
80 1 0.46 70.0 14.6092 17.0724 0 
83 1 0.46 70.0 15.18 16.959 0 
65 1 0.46 70.0 5.01072 17.5454 0 
253 1 0.46 70.0 5.52423 17.733 0 
245 1 0.46 70.0 5.91235 17.4173 0 
251 1 0.46 70.0 6.36909 17.6052 0 
89 1 0.46 70.0 7.12684 17.54 0 
289 1 0.46 70.0 7.5501 17.7131 0 
90 1 0.46 70.0 7.90432 17.4269 0 
248 1 0.46 70.0 8.3284 17.582 0 
96 1 0.46 70.0 8.75012 17.7328 0 
215 1 0.46 70.0 9.1004 17.4416 0 
294 1 0.46 70.0 9.52143 17.601 0 
16 1 0.46 70.0 9.94014 17.7584 0 
228 1 0.46 70.0 10.2946 17.4757 0 
4 1 0.46 70.0 11.0712 17.3702 0 
144 1 0.46 70.0 10.7153 17.6489 0 
109 1 0.46 70.0 11.4954 17.5466 0 
166 1 0.46 70.0 12.1631 17.5621 0 
35 1 0.46 70.0 12.6061 17.3934 0 
143 1 0.46 70.0 12.9581 17.7674 0 
160 1 0.46 70.0 13.4112 17.7072 0 
283 1 0.46 70.0 13.8935 17.6521 0 
52 1 0.46 70.0 14.3926 17.5774 0 
116 1 0.46 70.0 14.9258 17.5076 0 
137 1 0.46 70.0 15.5155 17.4445 0 
138 1 0.46 70.0 4.51473 17.781 0 
266 1 0.46 70.0 5.11135 18.0479 0 
56 1 0.46 70.0 5.99813 17.9144 0 
229 1 0.46 70.0 6.42165 18.1178 0 
2 1 0.46 70.0 6.77242 17.8245 0 
244 1 0.46 70.0 7.19562 18.0027 0 
86 1 0.46 70.0 7.62498 18.1602 0 
74 1 0.46 70.0 7.97736 17.8738 0 
44 1 0.46 70.0 8.40076 18.028 0 
26 1 0.46 70.0 8.82076 18.174 0 
278 1 0.46 70.0 9.1712 17.8829 0 
258 1 0.46 70.0 9.59139 18.0456 0 
199 1 0.46 70.0 10.0051 18.1985 0 
209 1 0.46 70.0 10.3596 17.9121 0 
279 1 0.46 70.0 10.7854 18.0999 0 
280 1 0.46 70.0 11.1329 17.8128 0 
237 1 0.46 70.0 11.5537 17.9855 0 
192 1 0.46 70.0 11.9888 17.9735 0 
257 1 0.46 70.0 12.511 17.8385 0 
185 1 0.46 70.0 12.791 18.1988 0 
293 1 0.46 70.0 13.2446 18.1517 0 
148 1 0.46 70.0 13.701 18.101 0 
9 1 0.46 70.0 14.1801 18.0506 0 
235 1 0.46 70.0 14.6851 17.9959 0 
77 1 0.46 70.0 15.2373 17.9656 0 
57 1 0.46 70.0 15.8594 17.968 0 
97 1 0.46 70.0 4.11481 18.2418 0 
1 1 0.46 70.0 4.6998 18.3687 0 
87 1 0.46 70.0 5.23931 18.5373 0 
141 1 0.46 70.0 5.62037 18.2233 0 
45 1 0.46 70.0 6.07277 18.4153 0 
145 1 0.46 70.0 6.49 18.6082 0 
243 1 0.46 70.0 6.84376 18.2978 0 
34 1 0.46 70.0 7.2741 18.454 0 
134 1 0.46 70.0 7.70293 18.6023 0 
184 1 0.46 70.0 8.05303 18.3205 0 
216 1 0.46 70.0 8.47384 18.4743 0 
23 1 0.46 70.0 8.88946 18.6099 0 
22 1 0.46 70.0 9.24251 18.3159 0 
17 1 0.46 70.0 9.66639 18.4939 0 
147 1 0.46 70.0 10.0818 18.6365 0 
195 1 0.46 70.0 10.4217 18.3331 0 
18 1 0.46 70.0 10.9184 18.5857 0 
225 1 0.46 70.0 11.2045 18.2485 0 
81 1 0.46 70.0 11.3704 18.6438 0 
93 1 0.46 70.0 11.7435 18.3967 0 
60 1 0.46 70.0 12.3356 18.2461 0 
5 1 0.46 70.0 12.1246 18.6283 0 
8 1 0.46 70.0 12.5982 18.6109 0 
43 1 0.46 70.0 13.0527 18.577 0 
302 1 0.46 70.0 13.5089 18.5447 0 
301 1 0.46 70.0 13.9693 18.5029 0 
128 1 0.46 70.0 14.4529 18.4635 0 
112 1 0.46 70.0 14.966 18.4284 0 
234 1 0.46 70.0 15.552 18.4494 0 
254 1 0.46 70.0 4.32738 18.799 0 
68 1 0.46 70.0 4.88745 18.8937 0 
132 1 0.46 70.0 5.72268 18.7122 0 
106 1 0.46 70.0 5.38691 19.0215 0 
105 1 0.46 70.0 6.13023 18.9213 0 
108 1 0.46 70.0 6.57329 19.0733 0 
98 1 0.46 70.0 6.92469 18.7496 0 
186 1 0.46 70.0 7.3555 18.9039 0 
285 1 0.46 70.0 7.78294 19.0337 0 
32 1 0.46 70.0 8.13384 18.7698 0 
14 1 0.46 70.0 8.54904 18.9257 0 
133 1 0.46 70.0 8.96887 19.0399 0 
92 1 0.46 70.0 9.3089 18.7323 0 
269 1 0.46 70.0 9.79321 18.9742 0 
246 1 0.46 70.0 10.2249 19.0584 0 
94 1 0.46 70.0 10.5111 18.7251 0 
162 1 0.46 70.0 10.6728 19.0878 0 
58 1 0.46 70.0 11.0953 19.0067 0 
272 1 0.46 70.0 11.5351 19.0337 0 
211 1 0.46 70.0 11.96 19.0257 0 
47 1 0.46 70.0 12.4031 19.0098 0 
78 1 0.46 70.0 12.8554 18.9904 0 
124 1 0.46 70.0 13.3092 18.9698 0 
201 1 0.46 70.0 13.7661 18.944 0 
95 1 0.46 70.0 14.2303 18.915 0 
3 1 0.46 70.0 14.7169 18.8908 0 
297 1 0.46 70.0 15.2367 18.8694 0 
205 1 0.46 70.0 15.957 18.887 0 
212 1 0.46 70.0 3.93753 19.2382 0 
69 1 0.46 70.0 4.58824 19.3021 0 
79 1 0.46 70.0 5.13432 19.4026 0 
187 1 0.46 70.0 5.75777 19.3073 0 
174 1 0.46 70.0 6.22513 19.3696 0 
290 1 0.46 70.0 7.00872 19.1966 0 
217 1 0.46 70.0 6.73773 19.5501 0 
219 1 0.46 70.0 7.41222 19.3747 0 
275 1 0.46 70.0 7.85167 19.4457 0 
33 1 0.46 70.0 8.25219 19.2652 0 
164 1 0.46 70.0 8.68054 19.3868 0 
39 1 0.46 70.0 9.12184 19.4501 0 
276 1 0.46 70.0 9.39563 19.12 0 
223 1 0.46 70.0 9.57312 19.473 0 
226 1 0.46 70.0 9.99319 19.4261 0 
88 1 0.46 70.0 10.4339 19.4463 0 
193 1 0.46 70.0 10.8812 19.4435 0 
196 1 0.46 70.0 11.3091 19.413 0 
131 1 0.46 70.0 11.7529 19.4204 0 
100 1 0.46 70.0 12.1974 19.4091 0 
120 1 0.46 70.0 12.6461 19.3946 0 
299 1 0.46 70.0 13.0982 19.3811 0 
256 1 0.46 70.0 13.5538 19.3689 0 
177 1 0.46 70.0 14.0126 19.3533 0 
292 1 0.46 70.0 14.4862 19.3399 0 
159 1 0.46 70.0 14.988 19.3266 0 
222 1 0.46 70.0 15.5456 19.2814 0 
287 1 0.46 70.0 4.26516 19.718 0 
91 1 0.46 70.0 4.84829 19.7714 0 
54 1 0.46 70.0 5.44517 19.7626 0 
240 1 0.46 70.0 5.91472 19.771 0 
218 1 0.46 70.0 6.37234 19.7968 0 
170 1 0.46 70.0 7.1245 19.7782 0 
247 1 0.46 70.0 7.57618 19.7971 0 
265 1 0.46 70.0 8.03237 19.8183 0 
286 1 0.46 70.0 8.45706 19.7755 0 
142 1 0.46 70.0 8.88833 19.8082 0 
255 1 0.46 70.0 9.33583 19.8285 0 
171 1 0.46 70.0 9.78636 19.8292 0 
208 1 0.46 70.0 10.216 19.817 0 
295 1 0.46 70.0 10.6563 19.82 0 
30 1 0.46 70.0 11.0997 19.8136 0 
291 1 0.46 70.0 11.5355 19.8036 0 
37 1 0.46 70.0 11.9815 19.8027 0 
46 1 0.46 70.0 12.4299 19.7942 0 
204 1 0.46 70.0 12.88 19.7852 0 
122 1 0.46 70.0 13.3325 19.7794 0 
296 1 0.46 70.0 13.7891 19.7768 0 
214 1 0.46 70.0 14.2522 19.7736 0 
12 1 0.46 70.0 14.7447 19.7704 0 
198 1 0.46 70.0 15.2865 19.7483 0 
300 1 0.46 70.0 15.9256 19.6679 0 
