# LAMMPS data file for rigid bodies

303 atoms

1 atom types

0.0 	 20.0 	 xlo xhi 
0.0 	 20.0 	 ylo yhi 
-1.0 	 1.0 	 zlo zhi 

Atoms

67 1 0.46 70.0 9.28111 13.2173 0 
211 1 0.46 70.0 10.4386 13.3041 0 
84 1 0.46 70.0 7.96171 13.6744 0 
3 1 0.46 70.0 8.60677 13.454 0 
127 1 0.46 70.0 9.34996 13.7746 0 
21 1 0.46 70.0 9.86 13.5144 0 
248 1 0.46 70.0 10.7779 13.7564 0 
210 1 0.46 70.0 11.3203 13.529 0 
45 1 0.46 70.0 7.32477 13.9065 0 
15 1 0.46 70.0 8.32572 14.1069 0 
176 1 0.46 70.0 8.84395 13.9536 0 
101 1 0.46 70.0 9.74173 14.1261 0 
107 1 0.46 70.0 10.2436 13.9257 0 
34 1 0.46 70.0 11.1622 14.1395 0 
159 1 0.46 70.0 11.6935 13.9935 0 
50 1 0.46 70.0 12.2511 13.8343 0 
24 1 0.46 70.0 6.68533 14.6363 0 
250 1 0.46 70.0 7.23987 14.4821 0 
262 1 0.46 70.0 7.78929 14.2815 0 
218 1 0.46 70.0 8.20257 14.6371 0 
161 1 0.46 70.0 8.71935 14.4763 0 
234 1 0.46 70.0 9.23475 14.3123 0 
123 1 0.46 70.0 9.61257 14.6388 0 
118 1 0.46 70.0 10.122 14.4644 0 
268 1 0.46 70.0 10.6294 14.2904 0 
242 1 0.46 70.0 11.0159 14.6394 0 
120 1 0.46 70.0 11.5368 14.5344 0 
106 1 0.46 70.0 12.0724 14.4244 0 
148 1 0.46 70.0 12.6539 14.2867 0 
163 1 0.46 70.0 6.12331 14.9133 0 
144 1 0.46 70.0 7.18362 15.0208 0 
201 1 0.46 70.0 7.6909 14.8206 0 
236 1 0.46 70.0 8.59553 14.9621 0 
257 1 0.46 70.0 9.10567 14.8012 0 
140 1 0.46 70.0 9.47595 15.1079 0 
53 1 0.46 70.0 9.98801 14.9431 0 
119 1 0.46 70.0 10.506 14.7789 0 
254 1 0.46 70.0 10.8685 15.1031 0 
86 1 0.46 70.0 11.365 15.0179 0 
198 1 0.46 70.0 11.8708 14.9397 0 
13 1 0.46 70.0 12.3932 14.8523 0 
165 1 0.46 70.0 12.9435 14.7586 0 
239 1 0.46 70.0 13.5541 14.7451 0 
186 1 0.46 70.0 6.15701 15.4799 0 
289 1 0.46 70.0 6.67474 15.2184 0 
251 1 0.46 70.0 7.16712 15.5318 0 
207 1 0.46 70.0 7.63381 15.3323 0 
158 1 0.46 70.0 8.10318 15.1375 0 
168 1 0.46 70.0 8.48518 15.4358 0 
298 1 0.46 70.0 8.96961 15.2616 0 
281 1 0.46 70.0 9.32993 15.5467 0 
82 1 0.46 70.0 9.84661 15.389 0 
173 1 0.46 70.0 10.3617 15.2279 0 
17 1 0.46 70.0 10.7121 15.5351 0 
271 1 0.46 70.0 11.1961 15.4707 0 
167 1 0.46 70.0 11.6791 15.4132 0 
188 1 0.46 70.0 12.1718 15.3507 0 
129 1 0.46 70.0 12.6809 15.2834 0 
189 1 0.46 70.0 13.2194 15.2203 0 
228 1 0.46 70.0 13.906 15.2767 0 
295 1 0.46 70.0 5.58109 15.6454 0 
259 1 0.46 70.0 6.25759 15.9873 0 
132 1 0.46 70.0 6.70512 15.7414 0 
62 1 0.46 70.0 7.5926 15.8278 0 
153 1 0.46 70.0 8.03933 15.6334 0 
72 1 0.46 70.0 8.42444 15.9189 0 
170 1 0.46 70.0 8.84985 15.7153 0 
11 1 0.46 70.0 9.21201 15.9905 0 
112 1 0.46 70.0 9.69441 15.8203 0 
256 1 0.46 70.0 10.2156 15.662 0 
92 1 0.46 70.0 10.5611 15.9639 0 
81 1 0.46 70.0 11.027 15.8979 0 
192 1 0.46 70.0 11.4952 15.859 0 
133 1 0.46 70.0 11.9678 15.8143 0 
265 1 0.46 70.0 12.4519 15.7627 0 
113 1 0.46 70.0 12.9547 15.7084 0 
40 1 0.46 70.0 13.4902 15.6503 0 
235 1 0.46 70.0 14.2396 15.7787 0 
215 1 0.46 70.0 5.25889 16.2984 0 
302 1 0.46 70.0 5.7842 16.1783 0 
288 1 0.46 70.0 6.69963 16.2555 0 
111 1 0.46 70.0 7.14505 16.0297 0 
115 1 0.46 70.0 7.55906 16.3063 0 
104 1 0.46 70.0 7.99168 16.1124 0 
208 1 0.46 70.0 8.37292 16.3813 0 
141 1 0.46 70.0 8.79816 16.1904 0 
174 1 0.46 70.0 9.57196 16.2586 0 
49 1 0.46 70.0 10.0604 16.0881 0 
142 1 0.46 70.0 10.4028 16.3845 0 
226 1 0.46 70.0 10.8592 16.3218 0 
193 1 0.46 70.0 11.3166 16.2826 0 
156 1 0.46 70.0 11.7757 16.2535 0 
196 1 0.46 70.0 12.2416 16.2148 0 
213 1 0.46 70.0 12.7218 16.1704 0 
195 1 0.46 70.0 13.2239 16.1226 0 
216 1 0.46 70.0 13.761 16.063 0 
273 1 0.46 70.0 14.5555 16.2668 0 
179 1 0.46 70.0 4.75116 16.6006 0 
229 1 0.46 70.0 5.76018 16.7091 0 
199 1 0.46 70.0 6.23891 16.4985 0 
293 1 0.46 70.0 6.67721 16.7404 0 
269 1 0.46 70.0 7.12431 16.51 0 
291 1 0.46 70.0 7.53263 16.7711 0 
184 1 0.46 70.0 7.94986 16.5779 0 
95 1 0.46 70.0 8.32682 16.8377 0 
217 1 0.46 70.0 8.74657 16.6463 0 
28 1 0.46 70.0 9.16701 16.4628 0 
105 1 0.46 70.0 9.53783 16.7377 0 
261 1 0.46 70.0 9.92628 16.5189 0 
33 1 0.46 70.0 10.2443 16.8015 0 
124 1 0.46 70.0 10.687 16.7395 0 
225 1 0.46 70.0 11.1358 16.7015 0 
272 1 0.46 70.0 11.5895 16.6734 0 
87 1 0.46 70.0 12.0465 16.6475 0 
178 1 0.46 70.0 12.5067 16.6122 0 
85 1 0.46 70.0 12.9851 16.5732 0 
205 1 0.46 70.0 13.4899 16.5281 0 
185 1 0.46 70.0 14.0322 16.4705 0 
78 1 0.46 70.0 14.294 16.8857 0 
183 1 0.46 70.0 14.8486 16.7524 0 
203 1 0.46 70.0 4.71878 17.1932 0 
64 1 0.46 70.0 5.2685 16.9084 0 
122 1 0.46 70.0 5.75803 17.2246 0 
253 1 0.46 70.0 6.21914 16.9929 0 
200 1 0.46 70.0 6.65674 17.2064 0 
8 1 0.46 70.0 7.1013 16.9693 0 
27 1 0.46 70.0 7.49999 17.2277 0 
32 1 0.46 70.0 7.91858 17.0409 0 
12 1 0.46 70.0 8.29379 17.3061 0 
39 1 0.46 70.0 8.69435 17.0985 0 
110 1 0.46 70.0 9.11636 16.9138 0 
23 1 0.46 70.0 9.48539 17.1815 0 
57 1 0.46 70.0 9.92783 17.1015 0 
102 1 0.46 70.0 10.4898 17.1485 0 
206 1 0.46 70.0 10.9368 17.1131 0 
91 1 0.46 70.0 11.3854 17.0837 0 
279 1 0.46 70.0 11.8383 17.0594 0 
249 1 0.46 70.0 12.2951 17.0378 0 
296 1 0.46 70.0 12.7562 17.0074 0 
94 1 0.46 70.0 13.2375 16.9712 0 
230 1 0.46 70.0 13.7464 16.9304 0 
90 1 0.46 70.0 13.9967 17.3325 0 
59 1 0.46 70.0 14.5579 17.307 0 
69 1 0.46 70.0 15.1418 17.2335 0 
63 1 0.46 70.0 4.79906 17.7322 0 
285 1 0.46 70.0 5.27947 17.4434 0 
143 1 0.46 70.0 5.74244 17.7301 0 
121 1 0.46 70.0 6.20182 17.4806 0 
266 1 0.46 70.0 6.63446 17.6645 0 
160 1 0.46 70.0 7.07451 17.4254 0 
264 1 0.46 70.0 7.46276 17.681 0 
29 1 0.46 70.0 7.87963 17.4962 0 
300 1 0.46 70.0 8.25272 17.7597 0 
172 1 0.46 70.0 8.66362 17.5782 0 
292 1 0.46 70.0 9.04975 17.3576 0 
243 1 0.46 70.0 9.39112 17.6094 0 
222 1 0.46 70.0 9.82697 17.534 0 
171 1 0.46 70.0 10.27 17.5222 0 
31 1 0.46 70.0 10.727 17.5168 0 
77 1 0.46 70.0 11.1765 17.4912 0 
68 1 0.46 70.0 11.6267 17.4671 0 
61 1 0.46 70.0 12.0797 17.4467 0 
231 1 0.46 70.0 12.5364 17.4277 0 
100 1 0.46 70.0 12.9981 17.3988 0 
301 1 0.46 70.0 13.4824 17.3669 0 
260 1 0.46 70.0 13.724 17.7616 0 
155 1 0.46 70.0 14.2452 17.7343 0 
246 1 0.46 70.0 14.8272 17.7369 0 
299 1 0.46 70.0 15.4478 17.7202 0 
26 1 0.46 70.0 4.26593 17.9705 0 
20 1 0.46 70.0 5.28517 17.9658 0 
194 1 0.46 70.0 6.16777 17.9602 0 
241 1 0.46 70.0 6.59758 18.1192 0 
139 1 0.46 70.0 7.04186 17.8786 0 
212 1 0.46 70.0 7.42671 18.13 0 
89 1 0.46 70.0 7.84321 17.9506 0 
10 1 0.46 70.0 8.22035 18.211 0 
18 1 0.46 70.0 8.61796 18.0317 0 
98 1 0.46 70.0 9.03234 17.8497 0 
280 1 0.46 70.0 9.63502 17.9423 0 
204 1 0.46 70.0 10.0714 17.9186 0 
233 1 0.46 70.0 10.5143 17.9059 0 
47 1 0.46 70.0 10.9637 17.8921 0 
147 1 0.46 70.0 11.4127 17.8713 0 
108 1 0.46 70.0 11.8635 17.8514 0 
190 1 0.46 70.0 12.3172 17.834 0 
76 1 0.46 70.0 12.7743 17.8177 0 
109 1 0.46 70.0 12.5521 18.2216 0 
58 1 0.46 70.0 13.2371 17.7909 0 
223 1 0.46 70.0 13.0097 18.2082 0 
125 1 0.46 70.0 13.4746 18.1836 0 
48 1 0.46 70.0 13.9643 18.1562 0 
149 1 0.46 70.0 14.492 18.1378 0 
83 1 0.46 70.0 15.0995 18.1792 0 
36 1 0.46 70.0 4.24455 18.6071 0 
275 1 0.46 70.0 4.78907 18.272 0 
258 1 0.46 70.0 5.28832 18.4639 0 
71 1 0.46 70.0 5.7268 18.2429 0 
19 1 0.46 70.0 6.14286 18.4387 0 
219 1 0.46 70.0 6.57882 18.5738 0 
130 1 0.46 70.0 7.00417 18.3285 0 
137 1 0.46 70.0 7.38978 18.5728 0 
169 1 0.46 70.0 7.816 18.403 0 
294 1 0.46 70.0 8.2539 18.6475 0 
180 1 0.46 70.0 8.70313 18.6236 0 
290 1 0.46 70.0 8.97265 18.2844 0 
240 1 0.46 70.0 9.4055 18.298 0 
202 1 0.46 70.0 9.85891 18.3134 0 
41 1 0.46 70.0 10.3025 18.3001 0 
79 1 0.46 70.0 10.7473 18.2857 0 
247 1 0.46 70.0 10.9772 18.6638 0 
220 1 0.46 70.0 11.1959 18.2702 0 
152 1 0.46 70.0 11.4262 18.6496 0 
276 1 0.46 70.0 11.6457 18.2528 0 
277 1 0.46 70.0 11.8769 18.6353 0 
145 1 0.46 70.0 12.0975 18.2363 0 
270 1 0.46 70.0 12.3298 18.622 0 
126 1 0.46 70.0 12.7852 18.61 0 
6 1 0.46 70.0 13.2436 18.5993 0 
154 1 0.46 70.0 13.7112 18.5768 0 
138 1 0.46 70.0 14.2032 18.5536 0 
38 1 0.46 70.0 14.7334 18.5471 0 
283 1 0.46 70.0 15.3413 18.657 0 
227 1 0.46 70.0 15.7443 18.2536 0 
284 1 0.46 70.0 4.79807 18.7941 0 
166 1 0.46 70.0 5.29083 18.9335 0 
1 1 0.46 70.0 5.744 18.7826 0 
232 1 0.46 70.0 6.18553 18.9103 0 
88 1 0.46 70.0 6.62464 19.027 0 
43 1 0.46 70.0 6.98646 18.7785 0 
4 1 0.46 70.0 7.34878 19.0247 0 
274 1 0.46 70.0 7.74572 18.8404 0 
157 1 0.46 70.0 8.10017 19.058 0 
150 1 0.46 70.0 8.53286 19.0327 0 
73 1 0.46 70.0 8.96871 19.0467 0 
177 1 0.46 70.0 9.18029 18.6754 0 
255 1 0.46 70.0 9.63129 18.6856 0 
128 1 0.46 70.0 9.41379 19.061 0 
80 1 0.46 70.0 9.86162 19.0669 0 
7 1 0.46 70.0 10.0837 18.6891 0 
42 1 0.46 70.0 10.5307 18.6781 0 
74 1 0.46 70.0 10.3109 19.065 0 
278 1 0.46 70.0 10.7575 19.054 0 
209 1 0.46 70.0 11.2056 19.0418 0 
9 1 0.46 70.0 11.6555 19.0302 0 
263 1 0.46 70.0 12.1072 19.0192 0 
136 1 0.46 70.0 12.5609 19.0089 0 
65 1 0.46 70.0 13.0172 18.9997 0 
44 1 0.46 70.0 13.4762 18.9916 0 
303 1 0.46 70.0 13.9443 18.9729 0 
25 1 0.46 70.0 14.4342 18.9608 0 
22 1 0.46 70.0 14.947 18.9784 0 
55 1 0.46 70.0 15.8439 18.933 0 
151 1 0.46 70.0 4.40361 19.1837 0 
16 1 0.46 70.0 4.95616 19.3112 0 
267 1 0.46 70.0 5.4923 19.3466 0 
146 1 0.46 70.0 5.95033 19.3106 0 
114 1 0.46 70.0 6.4001 19.4053 0 
162 1 0.46 70.0 6.93597 19.3573 0 
14 1 0.46 70.0 7.38187 19.4464 0 
70 1 0.46 70.0 7.82955 19.404 0 
182 1 0.46 70.0 8.30915 19.4292 0 
116 1 0.46 70.0 8.75093 19.4279 0 
282 1 0.46 70.0 9.1952 19.4354 0 
135 1 0.46 70.0 9.64086 19.4438 0 
99 1 0.46 70.0 10.0894 19.4449 0 
237 1 0.46 70.0 10.5381 19.4401 0 
175 1 0.46 70.0 10.9851 19.43 0 
238 1 0.46 70.0 11.4339 19.4211 0 
93 1 0.46 70.0 11.8845 19.4128 0 
60 1 0.46 70.0 12.3369 19.4049 0 
191 1 0.46 70.0 12.7916 19.3976 0 
46 1 0.46 70.0 13.2487 19.391 0 
2 1 0.46 70.0 13.7087 19.3856 0 
96 1 0.46 70.0 14.1841 19.373 0 
224 1 0.46 70.0 14.69 19.3757 0 
75 1 0.46 70.0 15.3483 19.2604 0 
66 1 0.46 70.0 16.0116 19.5344 0 
134 1 0.46 70.0 4.06846 19.6416 0 
117 1 0.46 70.0 4.65222 19.7276 0 
252 1 0.46 70.0 5.20128 19.764 0 
35 1 0.46 70.0 5.70276 19.7721 0 
286 1 0.46 70.0 6.16139 19.7847 0 
187 1 0.46 70.0 6.65856 19.7788 0 
214 1 0.46 70.0 7.11218 19.7944 0 
5 1 0.46 70.0 7.62228 19.8075 0 
56 1 0.46 70.0 8.0698 19.7967 0 
30 1 0.46 70.0 8.52454 19.8114 0 
103 1 0.46 70.0 8.97179 19.8124 0 
221 1 0.46 70.0 9.41722 19.8186 0 
54 1 0.46 70.0 9.86615 19.8207 0 
181 1 0.46 70.0 10.3158 19.8196 0 
52 1 0.46 70.0 10.7638 19.814 0 
287 1 0.46 70.0 11.2121 19.8081 0 
164 1 0.46 70.0 11.6617 19.8028 0 
297 1 0.46 70.0 12.1131 19.7976 0 
197 1 0.46 70.0 12.5664 19.7928 0 
97 1 0.46 70.0 13.0219 19.7882 0 
244 1 0.46 70.0 13.4799 19.7842 0 
131 1 0.46 70.0 13.9447 19.7794 0 
37 1 0.46 70.0 14.4325 19.7762 0 
245 1 0.46 70.0 14.9717 19.7549 0 
51 1 0.46 70.0 15.4943 19.74 0 
