# LAMMPS data file for rigid bodies

303 atoms

1 atom types

0.0 	 20.0 	 xlo xhi 
0.0 	 20.0 	 ylo yhi 
-1.0 	 1.0 	 zlo zhi 

Atoms

36 1 0.46 70.0 8.13962 13.6984 0 
206 1 0.46 70.0 9.04031 13.3763 0 
24 1 0.46 70.0 9.62866 13.5021 0 
12 1 0.46 70.0 10.1868 13.6216 0 
76 1 0.46 70.0 10.7248 13.749 0 
185 1 0.46 70.0 11.9899 13.7651 0 
207 1 0.46 70.0 7.2309 14.1381 0 
251 1 0.46 70.0 7.81214 14.1924 0 
290 1 0.46 70.0 8.71047 13.8511 0 
176 1 0.46 70.0 9.26377 13.9619 0 
7 1 0.46 70.0 9.78663 14.0784 0 
143 1 0.46 70.0 10.2998 14.1932 0 
55 1 0.46 70.0 11.2538 13.9107 0 
200 1 0.46 70.0 12.5786 14.0859 0 
278 1 0.46 70.0 6.61955 14.2975 0 
18 1 0.46 70.0 7.47311 14.6629 0 
272 1 0.46 70.0 8.36889 14.2819 0 
70 1 0.46 70.0 8.90515 14.378 0 
84 1 0.46 70.0 9.40899 14.4859 0 
262 1 0.46 70.0 9.90944 14.5933 0 
96 1 0.46 70.0 10.7972 14.3254 0 
184 1 0.46 70.0 11.2627 14.5309 0 
301 1 0.46 70.0 11.6972 14.2336 0 
260 1 0.46 70.0 12.189 14.4878 0 
118 1 0.46 70.0 13.1405 14.3818 0 
21 1 0.46 70.0 6.29779 14.8477 0 
17 1 0.46 70.0 6.92758 14.7738 0 
232 1 0.46 70.0 7.72901 15.1083 0 
244 1 0.46 70.0 8.04113 14.7016 0 
282 1 0.46 70.0 8.57244 14.7772 0 
158 1 0.46 70.0 9.06055 14.8776 0 
34 1 0.46 70.0 9.54686 14.9697 0 
181 1 0.46 70.0 10.0262 15.0787 0 
213 1 0.46 70.0 10.3972 14.7121 0 
114 1 0.46 70.0 10.863 14.8639 0 
221 1 0.46 70.0 11.3298 15.0448 0 
111 1 0.46 70.0 11.7523 14.7643 0 
188 1 0.46 70.0 12.257 15.0549 0 
199 1 0.46 70.0 12.677 14.7353 0 
27 1 0.46 70.0 13.1837 14.9822 0 
5 1 0.46 70.0 13.6973 14.7345 0 
99 1 0.46 70.0 5.57508 15.447 0 
87 1 0.46 70.0 6.15187 15.3998 0 
241 1 0.46 70.0 6.69841 15.2919 0 
274 1 0.46 70.0 7.23029 15.2071 0 
208 1 0.46 70.0 7.9695 15.5179 0 
178 1 0.46 70.0 8.26817 15.1662 0 
239 1 0.46 70.0 8.72517 15.2733 0 
33 1 0.46 70.0 9.20181 15.3386 0 
81 1 0.46 70.0 9.67172 15.43 0 
216 1 0.46 70.0 10.1347 15.5444 0 
174 1 0.46 70.0 10.4918 15.2068 0 
264 1 0.46 70.0 10.9471 15.3575 0 
137 1 0.46 70.0 11.4043 15.5245 0 
218 1 0.46 70.0 11.8091 15.2475 0 
190 1 0.46 70.0 12.7497 15.2934 0 
72 1 0.46 70.0 13.3015 15.4976 0 
233 1 0.46 70.0 13.8394 15.2959 0 
197 1 0.46 70.0 5.97578 15.9243 0 
43 1 0.46 70.0 6.52179 15.8101 0 
120 1 0.46 70.0 7.03152 15.7039 0 
126 1 0.46 70.0 7.52066 15.6189 0 
191 1 0.46 70.0 7.91869 15.9738 0 
201 1 0.46 70.0 8.39143 15.6955 0 
284 1 0.46 70.0 8.86517 15.7136 0 
259 1 0.46 70.0 9.33244 15.7792 0 
49 1 0.46 70.0 9.788 15.8746 0 
157 1 0.46 70.0 10.5897 15.6746 0 
141 1 0.46 70.0 10.2401 15.9919 0 
47 1 0.46 70.0 11.0395 15.8257 0 
160 1 0.46 70.0 11.5016 15.9795 0 
35 1 0.46 70.0 11.8754 15.7023 0 
161 1 0.46 70.0 12.3263 15.5712 0 
39 1 0.46 70.0 12.8459 15.7901 0 
6 1 0.46 70.0 13.8225 15.8409 0 
211 1 0.46 70.0 14.3726 15.6081 0 
266 1 0.46 70.0 5.37747 16.0194 0 
223 1 0.46 70.0 5.82614 16.4264 0 
148 1 0.46 70.0 6.37439 16.2997 0 
298 1 0.46 70.0 6.89038 16.1799 0 
71 1 0.46 70.0 7.39604 16.0692 0 
122 1 0.46 70.0 7.71501 16.407 0 
113 1 0.46 70.0 8.18865 16.3425 0 
177 1 0.46 70.0 8.57565 16.1132 0 
63 1 0.46 70.0 9.02319 16.1436 0 
57 1 0.46 70.0 9.46653 16.2162 0 
234 1 0.46 70.0 9.90958 16.3147 0 
91 1 0.46 70.0 10.3515 16.4347 0 
142 1 0.46 70.0 10.6882 16.123 0 
281 1 0.46 70.0 11.1471 16.2719 0 
283 1 0.46 70.0 11.6056 16.4246 0 
41 1 0.46 70.0 11.988 16.1452 0 
108 1 0.46 70.0 12.4353 16.0439 0 
64 1 0.46 70.0 12.9016 16.2973 0 
235 1 0.46 70.0 13.3252 16.0031 0 
292 1 0.46 70.0 13.8139 16.3588 0 
246 1 0.46 70.0 14.3138 16.1984 0 
288 1 0.46 70.0 14.8723 16.0271 0 
129 1 0.46 70.0 4.69283 16.7088 0 
73 1 0.46 70.0 5.26696 16.5684 0 
106 1 0.46 70.0 6.21686 16.7708 0 
245 1 0.46 70.0 6.745 16.6443 0 
299 1 0.46 70.0 7.24001 16.5183 0 
165 1 0.46 70.0 7.57141 16.8582 0 
25 1 0.46 70.0 8.01161 16.7573 0 
3 1 0.46 70.0 8.60124 16.5717 0 
227 1 0.46 70.0 9.08498 16.59 0 
112 1 0.46 70.0 9.55485 16.6553 0 
131 1 0.46 70.0 10.0126 16.7513 0 
45 1 0.46 70.0 10.4605 16.8715 0 
271 1 0.46 70.0 10.7973 16.565 0 
242 1 0.46 70.0 11.2522 16.7166 0 
248 1 0.46 70.0 11.6835 16.8749 0 
78 1 0.46 70.0 12.047 16.5962 0 
135 1 0.46 70.0 12.4935 16.5063 0 
217 1 0.46 70.0 12.9744 16.8177 0 
186 1 0.46 70.0 13.345 16.4862 0 
128 1 0.46 70.0 13.891 16.8439 0 
31 1 0.46 70.0 14.3793 16.7294 0 
26 1 0.46 70.0 14.9174 16.613 0 
97 1 0.46 70.0 5.12376 17.1186 0 
187 1 0.46 70.0 5.67542 16.927 0 
4 1 0.46 70.0 6.06423 17.2389 0 
289 1 0.46 70.0 6.58646 17.0864 0 
60 1 0.46 70.0 7.1095 16.9598 0 
132 1 0.46 70.0 7.4505 17.2931 0 
280 1 0.46 70.0 7.95683 17.22 0 
144 1 0.46 70.0 8.38558 16.994 0 
40 1 0.46 70.0 8.8255 16.9695 0 
183 1 0.46 70.0 9.2619 17.0076 0 
90 1 0.46 70.0 9.69539 17.0814 0 
192 1 0.46 70.0 10.13 17.1826 0 
61 1 0.46 70.0 10.568 17.3054 0 
119 1 0.46 70.0 10.9033 17.0042 0 
303 1 0.46 70.0 11.3461 17.1651 0 
150 1 0.46 70.0 12.1008 17.0453 0 
172 1 0.46 70.0 12.5426 16.9603 0 
154 1 0.46 70.0 12.8201 17.3261 0 
252 1 0.46 70.0 13.4236 16.9391 0 
28 1 0.46 70.0 13.7499 17.322 0 
121 1 0.46 70.0 14.237 17.2466 0 
170 1 0.46 70.0 14.7503 17.1641 0 
123 1 0.46 70.0 15.3265 17.0581 0 
254 1 0.46 70.0 4.55754 17.3431 0 
65 1 0.46 70.0 5.04302 17.6721 0 
54 1 0.46 70.0 5.54527 17.4293 0 
212 1 0.46 70.0 5.93859 17.7163 0 
149 1 0.46 70.0 6.43238 17.5305 0 
258 1 0.46 70.0 6.93828 17.3823 0 
224 1 0.46 70.0 7.26163 17.705 0 
236 1 0.46 70.0 7.75722 17.6297 0 
293 1 0.46 70.0 8.3653 17.4377 0 
93 1 0.46 70.0 8.84476 17.4193 0 
136 1 0.46 70.0 9.32411 17.4472 0 
80 1 0.46 70.0 9.78886 17.5093 0 
86 1 0.46 70.0 10.2368 17.6048 0 
74 1 0.46 70.0 10.6705 17.7407 0 
105 1 0.46 70.0 10.9972 17.4437 0 
15 1 0.46 70.0 11.4132 17.6124 0 
10 1 0.46 70.0 11.7977 17.3733 0 
171 1 0.46 70.0 12.3653 17.4066 0 
95 1 0.46 70.0 12.6718 17.7714 0 
53 1 0.46 70.0 13.2733 17.3701 0 
167 1 0.46 70.0 13.5797 17.7641 0 
66 1 0.46 70.0 14.0586 17.7237 0 
295 1 0.46 70.0 14.5572 17.6724 0 
14 1 0.46 70.0 15.0914 17.6145 0 
20 1 0.46 70.0 15.6932 17.5858 0 
133 1 0.46 70.0 4.51097 17.9397 0 
163 1 0.46 70.0 4.9884 18.2156 0 
294 1 0.46 70.0 5.48745 17.9493 0 
182 1 0.46 70.0 6.30862 17.9886 0 
253 1 0.46 70.0 6.79124 17.8149 0 
138 1 0.46 70.0 7.11495 18.1375 0 
153 1 0.46 70.0 7.56329 18.0417 0 
273 1 0.46 70.0 8.15448 17.8356 0 
243 1 0.46 70.0 8.39933 18.2177 0 
279 1 0.46 70.0 8.61091 17.8154 0 
147 1 0.46 70.0 8.83195 18.2127 0 
134 1 0.46 70.0 9.05929 17.8192 0 
44 1 0.46 70.0 9.50157 17.8585 0 
127 1 0.46 70.0 9.93578 17.9263 0 
110 1 0.46 70.0 10.3622 18.0253 0 
238 1 0.46 70.0 11.0779 17.8888 0 
139 1 0.46 70.0 11.5523 18.2032 0 
98 1 0.46 70.0 11.7907 17.826 0 
145 1 0.46 70.0 12.2261 17.8296 0 
210 1 0.46 70.0 12.454 18.2163 0 
275 1 0.46 70.0 12.9047 18.2015 0 
195 1 0.46 70.0 13.1223 17.7996 0 
103 1 0.46 70.0 13.364 18.1904 0 
52 1 0.46 70.0 13.8385 18.1629 0 
203 1 0.46 70.0 14.3398 18.1412 0 
250 1 0.46 70.0 14.8591 18.1132 0 
300 1 0.46 70.0 15.4208 18.0974 0 
102 1 0.46 70.0 4.0158 18.296 0 
269 1 0.46 70.0 4.52023 18.567 0 
189 1 0.46 70.0 5.44218 18.4426 0 
68 1 0.46 70.0 5.91192 18.2312 0 
92 1 0.46 70.0 6.31599 18.5302 0 
109 1 0.46 70.0 6.67346 18.2563 0 
124 1 0.46 70.0 6.97709 18.5814 0 
155 1 0.46 70.0 7.41288 18.4757 0 
229 1 0.46 70.0 7.95691 18.2388 0 
270 1 0.46 70.0 7.80869 18.648 0 
32 1 0.46 70.0 8.24915 18.6344 0 
198 1 0.46 70.0 8.69275 18.6341 0 
225 1 0.46 70.0 9.25652 18.2307 0 
302 1 0.46 70.0 9.13522 18.6514 0 
38 1 0.46 70.0 9.67812 18.2766 0 
69 1 0.46 70.0 10.1064 18.3396 0 
79 1 0.46 70.0 10.4455 18.642 0 
22 1 0.46 70.0 10.7045 18.2625 0 
8 1 0.46 70.0 11.133 18.3028 0 
152 1 0.46 70.0 11.3424 18.6656 0 
117 1 0.46 70.0 11.7795 18.6208 0 
48 1 0.46 70.0 12.0012 18.2269 0 
220 1 0.46 70.0 12.2315 18.6155 0 
180 1 0.46 70.0 12.6855 18.6058 0 
226 1 0.46 70.0 13.1415 18.5947 0 
173 1 0.46 70.0 13.605 18.5813 0 
101 1 0.46 70.0 14.0927 18.5613 0 
50 1 0.46 70.0 14.6214 18.5703 0 
62 1 0.46 70.0 15.1585 18.5744 0 
277 1 0.46 70.0 15.7768 18.564 0 
196 1 0.46 70.0 3.99373 18.978 0 
146 1 0.46 70.0 5.00298 18.7585 0 
100 1 0.46 70.0 5.46767 18.9378 0 
230 1 0.46 70.0 5.8602 18.702 0 
257 1 0.46 70.0 6.22241 18.9764 0 
85 1 0.46 70.0 6.67323 18.9228 0 
67 1 0.46 70.0 7.12338 19.0002 0 
82 1 0.46 70.0 7.56701 19.0123 0 
11 1 0.46 70.0 8.02334 19.0294 0 
9 1 0.46 70.0 8.46758 19.0261 0 
162 1 0.46 70.0 8.90732 19.0334 0 
125 1 0.46 70.0 9.57222 18.6877 0 
297 1 0.46 70.0 9.34471 19.0553 0 
42 1 0.46 70.0 9.78356 19.0837 0 
263 1 0.46 70.0 10.0057 18.7266 0 
209 1 0.46 70.0 10.2368 19.074 0 
104 1 0.46 70.0 10.667 19.0444 0 
107 1 0.46 70.0 10.8886 18.6679 0 
58 1 0.46 70.0 11.1158 19.0461 0 
30 1 0.46 70.0 11.568 19.0342 0 
231 1 0.46 70.0 12.0119 19.0122 0 
19 1 0.46 70.0 12.4634 19.0045 0 
285 1 0.46 70.0 12.918 18.9963 0 
261 1 0.46 70.0 13.3754 18.9882 0 
140 1 0.46 70.0 13.8439 18.9735 0 
23 1 0.46 70.0 14.341 18.9618 0 
179 1 0.46 70.0 14.9025 19.0249 0 
77 1 0.46 70.0 15.4477 19.0525 0 
56 1 0.46 70.0 4.52856 19.1485 0 
37 1 0.46 70.0 5.01934 19.2753 0 
29 1 0.46 70.0 5.48634 19.3936 0 
168 1 0.46 70.0 5.94155 19.3343 0 
166 1 0.46 70.0 6.42852 19.3805 0 
267 1 0.46 70.0 6.88182 19.384 0 
59 1 0.46 70.0 7.33692 19.4008 0 
286 1 0.46 70.0 7.78828 19.4087 0 
219 1 0.46 70.0 8.23953 19.416 0 
256 1 0.46 70.0 8.68278 19.4189 0 
130 1 0.46 70.0 9.12242 19.43 0 
116 1 0.46 70.0 9.5628 19.4484 0 
94 1 0.46 70.0 10.0127 19.4524 0 
268 1 0.46 70.0 10.4593 19.4434 0 
156 1 0.46 70.0 10.8978 19.4281 0 
46 1 0.46 70.0 11.3457 19.4227 0 
204 1 0.46 70.0 11.7948 19.413 0 
228 1 0.46 70.0 12.2422 19.4013 0 
249 1 0.46 70.0 12.6941 19.3948 0 
205 1 0.46 70.0 13.1492 19.3887 0 
88 1 0.46 70.0 13.6075 19.3827 0 
51 1 0.46 70.0 14.0776 19.3693 0 
222 1 0.46 70.0 14.5743 19.3687 0 
13 1 0.46 70.0 15.1959 19.515 0 
83 1 0.46 70.0 16.0113 19.1865 0 
202 1 0.46 70.0 4.13861 19.6255 0 
164 1 0.46 70.0 4.69353 19.7117 0 
291 1 0.46 70.0 5.20964 19.7724 0 
1 1 0.46 70.0 5.73614 19.7782 0 
194 1 0.46 70.0 6.19484 19.7757 0 
215 1 0.46 70.0 6.65243 19.7817 0 
175 1 0.46 70.0 7.1056 19.788 0 
16 1 0.46 70.0 7.55905 19.7955 0 
151 1 0.46 70.0 8.00982 19.7999 0 
247 1 0.46 70.0 8.45739 19.8044 0 
265 1 0.46 70.0 8.90001 19.8091 0 
214 1 0.46 70.0 9.34205 19.8177 0 
115 1 0.46 70.0 9.78833 19.824 0 
287 1 0.46 70.0 10.2371 19.8232 0 
276 1 0.46 70.0 10.6819 19.816 0 
240 1 0.46 70.0 11.1253 19.8081 0 
169 1 0.46 70.0 11.5725 19.8036 0 
2 1 0.46 70.0 12.0211 19.7976 0 
296 1 0.46 70.0 12.4705 19.7914 0 
75 1 0.46 70.0 12.9231 19.7871 0 
89 1 0.46 70.0 13.3785 19.7834 0 
237 1 0.46 70.0 13.8368 19.7797 0 
159 1 0.46 70.0 14.3049 19.7759 0 
255 1 0.46 70.0 14.8026 19.7746 0 
193 1 0.46 70.0 15.6929 19.6905 0 
