# LAMMPS data file for rigid bodies

303 atoms

1 atom types

0.0 	 20.0 	 xlo xhi 
0.0 	 20.0 	 ylo yhi 
-1.0 	 1.0 	 zlo zhi 

Atoms

231 1 0.46 70.0 9.69985 13.2024 0 
107 1 0.46 70.0 8.52577 13.5136 0 
203 1 0.46 70.0 9.13051 13.592 0 
289 1 0.46 70.0 9.66665 13.7668 0 
288 1 0.46 70.0 10.2144 13.6188 0 
24 1 0.46 70.0 10.7768 13.5455 0 
218 1 0.46 70.0 11.388 13.516 0 
155 1 0.46 70.0 7.53347 13.9879 0 
138 1 0.46 70.0 8.16875 13.9843 0 
245 1 0.46 70.0 8.77687 14.0584 0 
45 1 0.46 70.0 9.34086 14.166 0 
11 1 0.46 70.0 9.991 14.1693 0 
33 1 0.46 70.0 10.5292 14.1031 0 
165 1 0.46 70.0 11.0645 14.0587 0 
90 1 0.46 70.0 11.6293 14.0333 0 
174 1 0.46 70.0 12.2171 14.0484 0 
84 1 0.46 70.0 12.8251 14.1697 0 
192 1 0.46 70.0 6.66892 14.5681 0 
187 1 0.46 70.0 7.26227 14.5312 0 
116 1 0.46 70.0 7.86927 14.4679 0 
201 1 0.46 70.0 8.40891 14.4961 0 
202 1 0.46 70.0 8.91025 14.5647 0 
253 1 0.46 70.0 9.3811 14.6484 0 
294 1 0.46 70.0 9.84647 14.6342 0 
200 1 0.46 70.0 10.3334 14.5993 0 
99 1 0.46 70.0 10.8231 14.5606 0 
205 1 0.46 70.0 11.3311 14.5269 0 
216 1 0.46 70.0 11.8689 14.515 0 
70 1 0.46 70.0 12.4504 14.6264 0 
220 1 0.46 70.0 6.41626 15.111 0 
51 1 0.46 70.0 7.01646 15.0626 0 
26 1 0.46 70.0 7.63513 14.9305 0 
177 1 0.46 70.0 8.16101 14.9491 0 
133 1 0.46 70.0 8.65443 14.9963 0 
223 1 0.46 70.0 9.13329 15.058 0 
182 1 0.46 70.0 9.61824 15.0811 0 
55 1 0.46 70.0 10.0978 15.0613 0 
36 1 0.46 70.0 10.5747 15.0358 0 
95 1 0.46 70.0 11.0509 15.006 0 
173 1 0.46 70.0 11.5401 14.9799 0 
145 1 0.46 70.0 12.0523 14.9779 0 
125 1 0.46 70.0 13.0644 14.7104 0 
206 1 0.46 70.0 13.6854 14.9667 0 
117 1 0.46 70.0 5.77604 15.4623 0 
39 1 0.46 70.0 7.43631 15.3708 0 
195 1 0.46 70.0 7.94726 15.387 0 
132 1 0.46 70.0 8.43172 15.4223 0 
82 1 0.46 70.0 8.90412 15.4623 0 
47 1 0.46 70.0 9.37804 15.4875 0 
243 1 0.46 70.0 9.84882 15.4912 0 
78 1 0.46 70.0 10.3142 15.4791 0 
210 1 0.46 70.0 10.7769 15.4615 0 
156 1 0.46 70.0 11.2453 15.4394 0 
168 1 0.46 70.0 11.724 15.4179 0 
169 1 0.46 70.0 12.2233 15.4118 0 
175 1 0.46 70.0 12.6439 15.1396 0 
258 1 0.46 70.0 13.1732 15.2459 0 
144 1 0.46 70.0 14.3167 15.485 0 
75 1 0.46 70.0 6.30652 15.6468 0 
238 1 0.46 70.0 6.8356 15.5774 0 
131 1 0.46 70.0 7.27362 15.8012 0 
194 1 0.46 70.0 7.75819 15.8159 0 
123 1 0.46 70.0 8.22812 15.8416 0 
158 1 0.46 70.0 8.68918 15.8683 0 
151 1 0.46 70.0 9.14831 15.8859 0 
76 1 0.46 70.0 9.60636 15.896 0 
269 1 0.46 70.0 10.0635 15.8971 0 
129 1 0.46 70.0 10.52 15.8894 0 
59 1 0.46 70.0 10.9761 15.8756 0 
260 1 0.46 70.0 11.4334 15.8598 0 
85 1 0.46 70.0 11.8922 15.8458 0 
42 1 0.46 70.0 12.3543 15.8499 0 
31 1 0.46 70.0 12.7806 15.6658 0 
134 1 0.46 70.0 13.2694 15.7406 0 
149 1 0.46 70.0 13.7497 15.5605 0 
224 1 0.46 70.0 5.46877 16.0083 0 
21 1 0.46 70.0 6.02823 16.101 0 
263 1 0.46 70.0 6.60448 16.0767 0 
49 1 0.46 70.0 7.06528 16.2087 0 
7 1 0.46 70.0 7.54898 16.2318 0 
14 1 0.46 70.0 8.01303 16.2495 0 
180 1 0.46 70.0 8.47067 16.2709 0 
9 1 0.46 70.0 8.92636 16.2858 0 
262 1 0.46 70.0 9.38 16.294 0 
213 1 0.46 70.0 9.8322 16.2966 0 
295 1 0.46 70.0 10.2839 16.2976 0 
270 1 0.46 70.0 10.735 16.2924 0 
264 1 0.46 70.0 11.1878 16.2815 0 
197 1 0.46 70.0 11.6427 16.2685 0 
115 1 0.46 70.0 12.1005 16.2575 0 
105 1 0.46 70.0 12.5764 16.2475 0 
279 1 0.46 70.0 13.0299 16.1721 0 
104 1 0.46 70.0 13.5461 16.1532 0 
60 1 0.46 70.0 14.0557 16.0466 0 
280 1 0.46 70.0 14.6506 16.0343 0 
248 1 0.46 70.0 5.183 16.5232 0 
120 1 0.46 70.0 5.75467 16.5704 0 
293 1 0.46 70.0 6.34754 16.5141 0 
239 1 0.46 70.0 6.83221 16.6028 0 
212 1 0.46 70.0 7.32383 16.6325 0 
171 1 0.46 70.0 7.79122 16.6508 0 
126 1 0.46 70.0 8.24847 16.669 0 
8 1 0.46 70.0 8.70311 16.6817 0 
190 1 0.46 70.0 9.15535 16.6892 0 
29 1 0.46 70.0 9.60603 16.6936 0 
79 1 0.46 70.0 10.0566 16.6954 0 
274 1 0.46 70.0 10.5073 16.6938 0 
69 1 0.46 70.0 10.9577 16.6884 0 
267 1 0.46 70.0 11.4099 16.6793 0 
91 1 0.46 70.0 11.8654 16.6677 0 
207 1 0.46 70.0 12.3248 16.6558 0 
109 1 0.46 70.0 12.8057 16.6432 0 
176 1 0.46 70.0 13.2873 16.604 0 
299 1 0.46 70.0 13.7993 16.5814 0 
222 1 0.46 70.0 14.3253 16.5227 0 
130 1 0.46 70.0 14.9602 16.5667 0 
268 1 0.46 70.0 4.89818 17.0219 0 
106 1 0.46 70.0 5.48056 17.0546 0 
230 1 0.46 70.0 6.11306 16.9362 0 
54 1 0.46 70.0 6.60599 17.0011 0 
89 1 0.46 70.0 7.09388 17.0284 0 
228 1 0.46 70.0 7.56403 17.0465 0 
242 1 0.46 70.0 8.02201 17.0621 0 
137 1 0.46 70.0 8.4769 17.0731 0 
119 1 0.46 70.0 8.92964 17.0814 0 
57 1 0.46 70.0 9.38041 17.0877 0 
72 1 0.46 70.0 9.83078 17.0909 0 
249 1 0.46 70.0 10.281 17.0908 0 
6 1 0.46 70.0 10.7313 17.087 0 
32 1 0.46 70.0 11.183 17.08 0 
163 1 0.46 70.0 11.6365 17.0711 0 
298 1 0.46 70.0 12.0927 17.0608 0 
157 1 0.46 70.0 12.5535 17.049 0 
282 1 0.46 70.0 13.0365 17.0379 0 
22 1 0.46 70.0 13.5348 17.0284 0 
98 1 0.46 70.0 14.0459 17.0154 0 
19 1 0.46 70.0 14.579 16.9838 0 
93 1 0.46 70.0 15.2685 17.1072 0 
118 1 0.46 70.0 4.57975 17.5094 0 
140 1 0.46 70.0 5.18131 17.5378 0 
122 1 0.46 70.0 5.64687 17.7384 0 
191 1 0.46 70.0 5.89098 17.3468 0 
66 1 0.46 70.0 6.38305 17.4016 0 
23 1 0.46 70.0 6.86591 17.4248 0 
229 1 0.46 70.0 7.33496 17.439 0 
198 1 0.46 70.0 7.79317 17.4514 0 
53 1 0.46 70.0 8.24912 17.4618 0 
215 1 0.46 70.0 8.70328 17.4709 0 
150 1 0.46 70.0 9.15535 17.4783 0 
234 1 0.46 70.0 9.60554 17.4833 0 
237 1 0.46 70.0 10.0557 17.4849 0 
61 1 0.46 70.0 10.506 17.4827 0 
62 1 0.46 70.0 10.9567 17.477 0 
114 1 0.46 70.0 11.4096 17.4691 0 
235 1 0.46 70.0 11.8647 17.4598 0 
166 1 0.46 70.0 12.322 17.4499 0 
20 1 0.46 70.0 12.7839 17.44 0 
2 1 0.46 70.0 13.2685 17.4315 0 
135 1 0.46 70.0 13.7847 17.4547 0 
181 1 0.46 70.0 14.2922 17.4547 0 
4 1 0.46 70.0 14.8216 17.4357 0 
86 1 0.46 70.0 15.6212 17.653 0 
225 1 0.46 70.0 4.23132 18.0238 0 
73 1 0.46 70.0 4.86434 18.0137 0 
68 1 0.46 70.0 5.3779 18.1246 0 
27 1 0.46 70.0 6.14912 17.797 0 
64 1 0.46 70.0 5.89969 18.1837 0 
127 1 0.46 70.0 6.63454 17.8197 0 
302 1 0.46 70.0 6.39591 18.211 0 
209 1 0.46 70.0 7.10362 17.8294 0 
161 1 0.46 70.0 6.87025 18.2191 0 
58 1 0.46 70.0 7.56273 17.8391 0 
226 1 0.46 70.0 8.01999 17.849 0 
301 1 0.46 70.0 8.47525 17.8579 0 
38 1 0.46 70.0 8.92863 17.8658 0 
92 1 0.46 70.0 9.38 17.8722 0 
244 1 0.46 70.0 9.83027 17.8759 0 
121 1 0.46 70.0 10.2806 17.8755 0 
178 1 0.46 70.0 10.7309 17.8709 0 
16 1 0.46 70.0 11.1833 17.864 0 
232 1 0.46 70.0 11.6376 17.8558 0 
241 1 0.46 70.0 12.0938 17.847 0 
101 1 0.46 70.0 12.5522 17.8374 0 
259 1 0.46 70.0 13.0162 17.829 0 
147 1 0.46 70.0 13.2479 18.2186 0 
111 1 0.46 70.0 13.501 17.8241 0 
257 1 0.46 70.0 13.7274 18.2185 0 
217 1 0.46 70.0 14.0482 17.8911 0 
67 1 0.46 70.0 14.5525 17.9011 0 
208 1 0.46 70.0 15.0953 17.8685 0 
56 1 0.46 70.0 4.54789 18.4952 0 
284 1 0.46 70.0 5.1061 18.5298 0 
236 1 0.46 70.0 5.64328 18.569 0 
277 1 0.46 70.0 6.15113 18.5987 0 
146 1 0.46 70.0 6.63352 18.6082 0 
124 1 0.46 70.0 7.09919 18.6147 0 
50 1 0.46 70.0 7.33154 18.2269 0 
251 1 0.46 70.0 7.55743 18.6219 0 
154 1 0.46 70.0 7.78937 18.2353 0 
199 1 0.46 70.0 8.01382 18.6284 0 
143 1 0.46 70.0 8.24548 18.2434 0 
28 1 0.46 70.0 8.46877 18.6345 0 
80 1 0.46 70.0 8.69995 18.2508 0 
112 1 0.46 70.0 8.92265 18.6403 0 
160 1 0.46 70.0 9.15283 18.2575 0 
12 1 0.46 70.0 9.37581 18.6458 0 
88 1 0.46 70.0 9.60403 18.2631 0 
5 1 0.46 70.0 10.0551 18.2649 0 
219 1 0.46 70.0 9.82826 18.6504 0 
283 1 0.46 70.0 10.5065 18.2621 0 
278 1 0.46 70.0 10.281 18.6497 0 
40 1 0.46 70.0 10.9583 18.2557 0 
17 1 0.46 70.0 10.7341 18.644 0 
193 1 0.46 70.0 11.412 18.2486 0 
13 1 0.46 70.0 11.1884 18.6379 0 
303 1 0.46 70.0 11.8673 18.2412 0 
102 1 0.46 70.0 11.6432 18.6322 0 
196 1 0.46 70.0 12.3243 18.2332 0 
10 1 0.46 70.0 12.0989 18.6262 0 
18 1 0.46 70.0 12.7831 18.2247 0 
100 1 0.46 70.0 12.5561 18.6198 0 
221 1 0.46 70.0 13.0148 18.613 0 
25 1 0.46 70.0 13.4801 18.6096 0 
276 1 0.46 70.0 13.9578 18.6087 0 
233 1 0.46 70.0 14.3331 18.3462 0 
44 1 0.46 70.0 14.8516 18.3377 0 
74 1 0.46 70.0 15.4554 18.2676 0 
266 1 0.46 70.0 4.15745 18.9367 0 
1 1 0.46 70.0 4.82941 18.953 0 
167 1 0.46 70.0 5.38738 18.9623 0 
94 1 0.46 70.0 5.90513 18.9862 0 
97 1 0.46 70.0 6.39568 18.998 0 
254 1 0.46 70.0 6.86529 19.0027 0 
15 1 0.46 70.0 7.32416 19.0093 0 
179 1 0.46 70.0 7.78056 19.0143 0 
256 1 0.46 70.0 8.23516 19.0186 0 
255 1 0.46 70.0 8.68865 19.0224 0 
35 1 0.46 70.0 9.14228 19.026 0 
214 1 0.46 70.0 9.5963 19.03 0 
185 1 0.46 70.0 10.0537 19.033 0 
297 1 0.46 70.0 10.5116 19.0281 0 
183 1 0.46 70.0 10.9674 19.0229 0 
41 1 0.46 70.0 11.4224 19.0199 0 
37 1 0.46 70.0 11.8768 19.0165 0 
265 1 0.46 70.0 12.3321 19.0122 0 
184 1 0.46 70.0 12.7888 19.0077 0 
48 1 0.46 70.0 13.2475 19.0027 0 
96 1 0.46 70.0 13.7168 19.0004 0 
285 1 0.46 70.0 14.21 18.9863 0 
63 1 0.46 70.0 14.6333 18.798 0 
142 1 0.46 70.0 15.1682 18.7581 0 
170 1 0.46 70.0 15.7813 18.7185 0 
162 1 0.46 70.0 4.53758 19.3744 0 
188 1 0.46 70.0 5.13204 19.3668 0 
139 1 0.46 70.0 5.65923 19.3756 0 
272 1 0.46 70.0 6.15716 19.3887 0 
281 1 0.46 70.0 6.63084 19.3921 0 
261 1 0.46 70.0 7.09035 19.398 0 
189 1 0.46 70.0 7.54674 19.4021 0 
87 1 0.46 70.0 8.00009 19.4047 0 
110 1 0.46 70.0 8.45161 19.4066 0 
46 1 0.46 70.0 8.90382 19.4067 0 
204 1 0.46 70.0 9.35902 19.4067 0 
164 1 0.46 70.0 9.81702 19.4069 0 
211 1 0.46 70.0 10.2882 19.4058 0 
141 1 0.46 70.0 10.7479 19.4018 0 
291 1 0.46 70.0 11.205 19.4029 0 
227 1 0.46 70.0 11.6596 19.4042 0 
71 1 0.46 70.0 12.1126 19.4026 0 
34 1 0.46 70.0 12.5663 19.4004 0 
152 1 0.46 70.0 13.0225 19.3974 0 
43 1 0.46 70.0 13.4819 19.3929 0 
77 1 0.46 70.0 13.9596 19.3884 0 
113 1 0.46 70.0 14.4645 19.3665 0 
275 1 0.46 70.0 14.9283 19.2428 0 
159 1 0.46 70.0 15.4603 19.2158 0 
250 1 0.46 70.0 16.0842 19.2425 0 
65 1 0.46 70.0 4.08554 19.6618 0 
136 1 0.46 70.0 4.85691 19.7704 0 
172 1 0.46 70.0 5.40923 19.7744 0 
186 1 0.46 70.0 5.91481 19.7786 0 
271 1 0.46 70.0 6.39555 19.7832 0 
81 1 0.46 70.0 6.85732 19.7882 0 
273 1 0.46 70.0 7.31403 19.7918 0 
103 1 0.46 70.0 7.76584 19.7943 0 
30 1 0.46 70.0 8.21085 19.7959 0 
3 1 0.46 70.0 8.64587 19.7989 0 
290 1 0.46 70.0 9.06748 19.804 0 
246 1 0.46 70.0 9.47384 19.8141 0 
287 1 0.46 70.0 9.87042 19.8203 0 
240 1 0.46 70.0 10.261 19.8219 0 
247 1 0.46 70.0 10.6533 19.8117 0 
286 1 0.46 70.0 11.0573 19.8051 0 
153 1 0.46 70.0 11.4752 19.7995 0 
296 1 0.46 70.0 11.9066 19.7949 0 
128 1 0.46 70.0 12.3493 19.7931 0 
292 1 0.46 70.0 12.7998 19.7911 0 
108 1 0.46 70.0 13.256 19.7884 0 
300 1 0.46 70.0 13.7195 19.7828 0 
252 1 0.46 70.0 14.202 19.7778 0 
148 1 0.46 70.0 14.7006 19.7711 0 
52 1 0.46 70.0 15.1932 19.7154 0 
83 1 0.46 70.0 15.7373 19.704 0 
