# LAMMPS data file for rigid bodies

303 atoms

1 atom types

0.0 	 20.0 	 xlo xhi 
0.0 	 20.0 	 ylo yhi 
-1.0 	 1.0 	 zlo zhi 

Atoms

28 1 0.46 70.0 8.95599 13.3253 0 
139 1 0.46 70.0 10.225 13.2274 0 
109 1 0.46 70.0 8.36088 13.5852 0 
237 1 0.46 70.0 9.67598 13.4618 0 
202 1 0.46 70.0 10.6887 13.5715 0 
125 1 0.46 70.0 11.3999 13.586 0 
138 1 0.46 70.0 7.2452 14.0973 0 
84 1 0.46 70.0 7.79981 13.837 0 
218 1 0.46 70.0 8.25369 14.2056 0 
129 1 0.46 70.0 8.75274 13.9946 0 
222 1 0.46 70.0 9.24892 13.801 0 
227 1 0.46 70.0 9.6726 14.1031 0 
38 1 0.46 70.0 10.1432 13.8374 0 
216 1 0.46 70.0 10.5275 14.1967 0 
5 1 0.46 70.0 11.0125 13.9964 0 
9 1 0.46 70.0 11.9049 13.934 0 
298 1 0.46 70.0 12.6736 14.0703 0 
110 1 0.46 70.0 6.69253 14.4137 0 
122 1 0.46 70.0 7.75013 14.4311 0 
183 1 0.46 70.0 8.69728 14.5309 0 
244 1 0.46 70.0 9.18256 14.3328 0 
23 1 0.46 70.0 9.5889 14.6315 0 
270 1 0.46 70.0 10.0623 14.4226 0 
175 1 0.46 70.0 10.9273 14.5233 0 
120 1 0.46 70.0 11.4398 14.278 0 
269 1 0.46 70.0 11.7708 14.6503 0 
186 1 0.46 70.0 12.2186 14.3992 0 
21 1 0.46 70.0 13.1721 14.4777 0 
158 1 0.46 70.0 6.14453 14.8222 0 
24 1 0.46 70.0 6.72848 14.9873 0 
180 1 0.46 70.0 7.24135 14.6774 0 
102 1 0.46 70.0 7.73441 14.9578 0 
170 1 0.46 70.0 8.21578 14.7387 0 
8 1 0.46 70.0 8.65265 15.0301 0 
211 1 0.46 70.0 9.11883 14.8337 0 
239 1 0.46 70.0 9.9861 14.9262 0 
88 1 0.46 70.0 10.4553 14.727 0 
255 1 0.46 70.0 10.8316 15.0307 0 
275 1 0.46 70.0 11.3001 14.8365 0 
58 1 0.46 70.0 12.1711 14.9622 0 
78 1 0.46 70.0 12.6574 14.7314 0 
225 1 0.46 70.0 13.0795 15.0865 0 
121 1 0.46 70.0 13.6263 14.8819 0 
105 1 0.46 70.0 6.20187 15.3871 0 
289 1 0.46 70.0 6.75605 15.5036 0 
281 1 0.46 70.0 7.24793 15.1958 0 
197 1 0.46 70.0 7.73099 15.45 0 
261 1 0.46 70.0 8.1912 15.2364 0 
106 1 0.46 70.0 8.62269 15.5054 0 
89 1 0.46 70.0 9.06996 15.3108 0 
99 1 0.46 70.0 9.52334 15.1191 0 
90 1 0.46 70.0 9.91511 15.4007 0 
114 1 0.46 70.0 10.3711 15.2152 0 
124 1 0.46 70.0 10.7458 15.5028 0 
278 1 0.46 70.0 11.2094 15.3275 0 
113 1 0.46 70.0 11.6833 15.1549 0 
96 1 0.46 70.0 12.0724 15.4564 0 
247 1 0.46 70.0 12.5709 15.2763 0 
7 1 0.46 70.0 13.4828 15.4655 0 
42 1 0.46 70.0 14.0479 15.2996 0 
209 1 0.46 70.0 5.20114 15.7923 0 
133 1 0.46 70.0 5.77862 15.7997 0 
267 1 0.46 70.0 6.31585 15.9136 0 
234 1 0.46 70.0 6.8269 15.9874 0 
219 1 0.46 70.0 7.26859 15.6781 0 
151 1 0.46 70.0 7.74264 15.9195 0 
299 1 0.46 70.0 8.18095 15.7112 0 
45 1 0.46 70.0 8.59963 15.9647 0 
165 1 0.46 70.0 9.03216 15.7707 0 
233 1 0.46 70.0 9.46811 15.5837 0 
191 1 0.46 70.0 9.85169 15.8562 0 
35 1 0.46 70.0 10.2953 15.6773 0 
94 1 0.46 70.0 10.6635 15.9549 0 
206 1 0.46 70.0 11.1172 15.7865 0 
29 1 0.46 70.0 11.5868 15.6244 0 
168 1 0.46 70.0 11.9617 15.9173 0 
86 1 0.46 70.0 12.4558 15.763 0 
192 1 0.46 70.0 12.9612 15.6125 0 
271 1 0.46 70.0 13.3357 15.9799 0 
34 1 0.46 70.0 13.8668 15.8654 0 
2 1 0.46 70.0 14.4481 15.7316 0 
201 1 0.46 70.0 5.32091 16.3616 0 
240 1 0.46 70.0 5.88846 16.3529 0 
32 1 0.46 70.0 6.42021 16.4011 0 
53 1 0.46 70.0 7.30707 16.1391 0 
169 1 0.46 70.0 7.74266 16.3792 0 
100 1 0.46 70.0 8.1695 16.172 0 
157 1 0.46 70.0 8.55862 16.4206 0 
135 1 0.46 70.0 8.98719 16.2264 0 
148 1 0.46 70.0 9.41564 16.039 0 
126 1 0.46 70.0 9.78832 16.3084 0 
92 1 0.46 70.0 10.2228 16.1295 0 
131 1 0.46 70.0 10.5901 16.405 0 
73 1 0.46 70.0 11.0279 16.2356 0 
291 1 0.46 70.0 11.4843 16.0725 0 
290 1 0.46 70.0 11.8479 16.3618 0 
187 1 0.46 70.0 12.3307 16.2165 0 
62 1 0.46 70.0 12.8287 16.0904 0 
276 1 0.46 70.0 13.6955 16.3689 0 
242 1 0.46 70.0 14.2416 16.2787 0 
48 1 0.46 70.0 14.8444 16.1786 0 
132 1 0.46 70.0 5.01788 16.8684 0 
220 1 0.46 70.0 5.58426 16.8473 0 
181 1 0.46 70.0 6.15836 16.8105 0 
16 1 0.46 70.0 6.89131 16.4516 0 
167 1 0.46 70.0 6.6937 16.8646 0 
130 1 0.46 70.0 7.32214 16.5969 0 
97 1 0.46 70.0 7.70655 16.8374 0 
189 1 0.46 70.0 8.12895 16.6293 0 
13 1 0.46 70.0 8.51362 16.8734 0 
101 1 0.46 70.0 8.9369 16.6787 0 
140 1 0.46 70.0 9.36197 16.4909 0 
40 1 0.46 70.0 9.73208 16.7582 0 
85 1 0.46 70.0 10.1583 16.5793 0 
27 1 0.46 70.0 10.5251 16.8527 0 
54 1 0.46 70.0 10.9532 16.6842 0 
14 1 0.46 70.0 11.3899 16.5191 0 
303 1 0.46 70.0 11.7498 16.8071 0 
252 1 0.46 70.0 12.2092 16.6581 0 
203 1 0.46 70.0 12.6921 16.5366 0 
19 1 0.46 70.0 13.1854 16.4538 0 
248 1 0.46 70.0 13.5289 16.8396 0 
55 1 0.46 70.0 14.0482 16.7667 0 
293 1 0.46 70.0 14.6194 16.7061 0 
75 1 0.46 70.0 15.2607 16.6544 0 
70 1 0.46 70.0 5.89401 17.2303 0 
1 1 0.46 70.0 6.37863 17.2543 0 
204 1 0.46 70.0 6.83427 17.3006 0 
3 1 0.46 70.0 7.22103 17.0399 0 
144 1 0.46 70.0 7.65286 17.2872 0 
230 1 0.46 70.0 8.08693 17.0855 0 
60 1 0.46 70.0 8.46937 17.3236 0 
302 1 0.46 70.0 8.88845 17.1288 0 
15 1 0.46 70.0 9.30975 16.94 0 
128 1 0.46 70.0 9.67763 17.2045 0 
273 1 0.46 70.0 10.1002 17.0263 0 
193 1 0.46 70.0 10.4642 17.2979 0 
198 1 0.46 70.0 10.8871 17.1301 0 
69 1 0.46 70.0 11.315 16.9665 0 
250 1 0.46 70.0 11.6726 17.2539 0 
285 1 0.46 70.0 12.1085 17.1017 0 
241 1 0.46 70.0 12.5656 16.9759 0 
266 1 0.46 70.0 13.0385 16.9015 0 
11 1 0.46 70.0 13.381 17.2934 0 
43 1 0.46 70.0 13.8705 17.2318 0 
83 1 0.46 70.0 14.3968 17.1735 0 
235 1 0.46 70.0 15.0084 17.1556 0 
253 1 0.46 70.0 4.71502 17.3508 0 
149 1 0.46 70.0 5.31802 17.3994 0 
226 1 0.46 70.0 5.76515 17.6711 0 
166 1 0.46 70.0 6.26454 17.6988 0 
50 1 0.46 70.0 6.75353 17.7491 0 
108 1 0.46 70.0 7.24332 17.4983 0 
245 1 0.46 70.0 7.62842 17.7415 0 
104 1 0.46 70.0 8.03765 17.5385 0 
196 1 0.46 70.0 8.42341 17.7706 0 
137 1 0.46 70.0 8.84015 17.5771 0 
31 1 0.46 70.0 9.258 17.3863 0 
136 1 0.46 70.0 9.6234 17.6479 0 
155 1 0.46 70.0 10.0426 17.4698 0 
200 1 0.46 70.0 10.4039 17.7391 0 
93 1 0.46 70.0 10.824 17.5744 0 
256 1 0.46 70.0 11.2443 17.4117 0 
297 1 0.46 70.0 11.5929 17.699 0 
301 1 0.46 70.0 12.0249 17.5461 0 
154 1 0.46 70.0 12.465 17.418 0 
288 1 0.46 70.0 12.9175 17.3436 0 
80 1 0.46 70.0 13.2657 17.7407 0 
163 1 0.46 70.0 13.7236 17.6888 0 
195 1 0.46 70.0 14.2081 17.6362 0 
295 1 0.46 70.0 14.7365 17.5895 0 
119 1 0.46 70.0 15.4708 17.561 0 
190 1 0.46 70.0 4.31955 17.8356 0 
221 1 0.46 70.0 4.92749 17.875 0 
274 1 0.46 70.0 5.4218 18.0084 0 
6 1 0.46 70.0 5.93207 18.1097 0 
232 1 0.46 70.0 6.39271 18.1401 0 
41 1 0.46 70.0 6.84368 18.1961 0 
127 1 0.46 70.0 7.21631 17.9514 0 
65 1 0.46 70.0 7.59482 18.1921 0 
39 1 0.46 70.0 8.00343 17.9968 0 
292 1 0.46 70.0 8.38565 18.2158 0 
264 1 0.46 70.0 8.79454 18.0238 0 
52 1 0.46 70.0 9.20811 17.8289 0 
87 1 0.46 70.0 9.57072 18.0898 0 
184 1 0.46 70.0 9.98534 17.9094 0 
199 1 0.46 70.0 10.3432 18.1759 0 
143 1 0.46 70.0 10.7612 18.0133 0 
257 1 0.46 70.0 11.1806 17.8589 0 
272 1 0.46 70.0 11.5406 18.179 0 
20 1 0.46 70.0 11.9278 17.9842 0 
33 1 0.46 70.0 12.3639 17.8568 0 
67 1 0.46 70.0 12.812 17.787 0 
280 1 0.46 70.0 12.6726 18.2203 0 
4 1 0.46 70.0 13.1226 18.1776 0 
152 1 0.46 70.0 13.5775 18.1382 0 
156 1 0.46 70.0 14.0397 18.0958 0 
236 1 0.46 70.0 14.5336 18.0486 0 
177 1 0.46 70.0 15.0981 17.9818 0 
115 1 0.46 70.0 4.56734 18.3594 0 
36 1 0.46 70.0 5.12131 18.4165 0 
12 1 0.46 70.0 5.63533 18.4901 0 
246 1 0.46 70.0 6.1293 18.5472 0 
59 1 0.46 70.0 6.59195 18.5776 0 
210 1 0.46 70.0 7.06269 18.5853 0 
71 1 0.46 70.0 7.50777 18.6203 0 
223 1 0.46 70.0 7.94238 18.4912 0 
178 1 0.46 70.0 8.35581 18.6502 0 
150 1 0.46 70.0 8.75463 18.4745 0 
103 1 0.46 70.0 9.16211 18.2669 0 
134 1 0.46 70.0 9.52239 18.5344 0 
72 1 0.46 70.0 9.92865 18.3453 0 
111 1 0.46 70.0 10.2807 18.6097 0 
82 1 0.46 70.0 10.6963 18.446 0 
44 1 0.46 70.0 11.1166 18.2964 0 
213 1 0.46 70.0 11.4802 18.6221 0 
263 1 0.46 70.0 11.9236 18.5927 0 
56 1 0.46 70.0 12.2294 18.2843 0 
185 1 0.46 70.0 12.4777 18.6343 0 
228 1 0.46 70.0 12.9295 18.6006 0 
91 1 0.46 70.0 13.3849 18.572 0 
57 1 0.46 70.0 13.8439 18.5429 0 
179 1 0.46 70.0 14.3271 18.5046 0 
18 1 0.46 70.0 14.8519 18.4457 0 
231 1 0.46 70.0 15.5098 18.3571 0 
249 1 0.46 70.0 4.18271 18.8227 0 
173 1 0.46 70.0 4.83123 18.8475 0 
277 1 0.46 70.0 5.36109 18.8971 0 
251 1 0.46 70.0 5.86109 18.9393 0 
268 1 0.46 70.0 6.34109 18.9712 0 
47 1 0.46 70.0 6.80075 18.9839 0 
258 1 0.46 70.0 7.25494 18.999 0 
118 1 0.46 70.0 7.70918 19.0098 0 
171 1 0.46 70.0 8.14668 19.0226 0 
10 1 0.46 70.0 8.60341 19.0166 0 
160 1 0.46 70.0 9.11943 18.6944 0 
63 1 0.46 70.0 9.03338 19.0908 0 
30 1 0.46 70.0 9.45953 18.9855 0 
123 1 0.46 70.0 9.8796 18.7788 0 
284 1 0.46 70.0 10.2459 19.0539 0 
300 1 0.46 70.0 10.6214 18.8729 0 
294 1 0.46 70.0 11.0464 18.724 0 
182 1 0.46 70.0 11.3534 19.0517 0 
279 1 0.46 70.0 11.7932 19.0181 0 
212 1 0.46 70.0 12.241 19.0054 0 
283 1 0.46 70.0 12.7149 19.0075 0 
66 1 0.46 70.0 13.1704 18.9905 0 
26 1 0.46 70.0 13.629 18.9706 0 
215 1 0.46 70.0 14.1057 18.9454 0 
153 1 0.46 70.0 14.6122 18.906 0 
296 1 0.46 70.0 15.1696 18.8369 0 
76 1 0.46 70.0 15.8182 18.8848 0 
194 1 0.46 70.0 4.53786 19.2776 0 
229 1 0.46 70.0 5.09347 19.3219 0 
146 1 0.46 70.0 5.6036 19.3481 0 
37 1 0.46 70.0 6.09049 19.3663 0 
174 1 0.46 70.0 6.55746 19.3798 0 
286 1 0.46 70.0 7.01452 19.3885 0 
172 1 0.46 70.0 7.46842 19.3977 0 
224 1 0.46 70.0 7.91717 19.4085 0 
161 1 0.46 70.0 8.36456 19.4088 0 
217 1 0.46 70.0 8.79985 19.4309 0 
254 1 0.46 70.0 9.30254 19.4249 0 
98 1 0.46 70.0 9.83417 19.1863 0 
25 1 0.46 70.0 10.1715 19.472 0 
265 1 0.46 70.0 10.6081 19.4144 0 
81 1 0.46 70.0 10.9257 19.1388 0 
117 1 0.46 70.0 11.1583 19.4654 0 
61 1 0.46 70.0 11.5951 19.424 0 
46 1 0.46 70.0 12.0379 19.4044 0 
207 1 0.46 70.0 12.4887 19.3957 0 
116 1 0.46 70.0 12.9476 19.3934 0 
79 1 0.46 70.0 13.4056 19.3841 0 
208 1 0.46 70.0 13.8723 19.3689 0 
49 1 0.46 70.0 14.3618 19.3513 0 
260 1 0.46 70.0 14.8757 19.3204 0 
205 1 0.46 70.0 15.4188 19.2922 0 
238 1 0.46 70.0 4.16153 19.6665 0 
74 1 0.46 70.0 4.80259 19.7471 0 
142 1 0.46 70.0 5.34688 19.7704 0 
141 1 0.46 70.0 5.84815 19.7745 0 
145 1 0.46 70.0 6.32139 19.7784 0 
162 1 0.46 70.0 6.77974 19.7822 0 
159 1 0.46 70.0 7.23443 19.7881 0 
259 1 0.46 70.0 7.68551 19.795 0 
214 1 0.46 70.0 8.13384 19.7984 0 
262 1 0.46 70.0 8.57489 19.8076 0 
95 1 0.46 70.0 9.01877 19.7999 0 
68 1 0.46 70.0 9.44078 19.8449 0 
77 1 0.46 70.0 9.72158 19.5604 0 
164 1 0.46 70.0 10.0034 19.8555 0 
17 1 0.46 70.0 10.4463 19.8187 0 
22 1 0.46 70.0 10.885 19.7984 0 
147 1 0.46 70.0 11.3766 19.822 0 
64 1 0.46 70.0 11.8247 19.8022 0 
188 1 0.46 70.0 12.2717 19.7926 0 
243 1 0.46 70.0 12.723 19.7881 0 
112 1 0.46 70.0 13.1801 19.7848 0 
287 1 0.46 70.0 13.6392 19.7795 0 
51 1 0.46 70.0 14.1138 19.7748 0 
176 1 0.46 70.0 14.6159 19.7704 0 
282 1 0.46 70.0 15.1557 19.7522 0 
107 1 0.46 70.0 15.8063 19.6683 0 
