# LAMMPS data file for rigid bodies

303 atoms

1 atom types

0.0 	 20.0 	 xlo xhi 
0.0 	 20.0 	 ylo yhi 
-1.0 	 1.0 	 zlo zhi 

Atoms

210 1 0.46 70.0 10.2944 13.1757 0 
69 1 0.46 70.0 8.71297 13.4948 0 
222 1 0.46 70.0 9.32091 13.5417 0 
301 1 0.46 70.0 9.87754 13.6357 0 
13 1 0.46 70.0 10.4579 13.7211 0 
182 1 0.46 70.0 10.9839 13.4988 0 
84 1 0.46 70.0 11.6004 13.4899 0 
206 1 0.46 70.0 7.84108 14.0893 0 
213 1 0.46 70.0 8.43517 13.9978 0 
14 1 0.46 70.0 9.00552 14.0455 0 
25 1 0.46 70.0 9.53157 14.1092 0 
233 1 0.46 70.0 10.0524 14.1605 0 
185 1 0.46 70.0 10.5624 14.2146 0 
40 1 0.46 70.0 11.0452 14.0694 0 
207 1 0.46 70.0 11.5759 14.0515 0 
190 1 0.46 70.0 12.1504 13.8844 0 
7 1 0.46 70.0 7.24075 14.2599 0 
47 1 0.46 70.0 8.26652 14.4991 0 
261 1 0.46 70.0 8.79506 14.5209 0 
142 1 0.46 70.0 9.30157 14.5724 0 
55 1 0.46 70.0 9.79886 14.6092 0 
302 1 0.46 70.0 10.2968 14.6428 0 
56 1 0.46 70.0 10.8067 14.6328 0 
198 1 0.46 70.0 11.2911 14.5494 0 
42 1 0.46 70.0 11.8102 14.512 0 
36 1 0.46 70.0 12.334 14.4131 0 
299 1 0.46 70.0 12.9103 14.3193 0 
12 1 0.46 70.0 6.62035 14.6851 0 
54 1 0.46 70.0 7.18785 14.8321 0 
275 1 0.46 70.0 7.70721 14.6735 0 
251 1 0.46 70.0 8.13051 14.971 0 
88 1 0.46 70.0 8.63116 14.9815 0 
110 1 0.46 70.0 9.11641 15.0207 0 
114 1 0.46 70.0 9.59576 15.047 0 
211 1 0.46 70.0 10.0777 15.0666 0 
272 1 0.46 70.0 10.567 15.0684 0 
132 1 0.46 70.0 11.0548 15.0458 0 
129 1 0.46 70.0 11.5352 14.9917 0 
6 1 0.46 70.0 12.0345 14.9563 0 
168 1 0.46 70.0 12.5432 14.8908 0 
262 1 0.46 70.0 13.083 14.8742 0 
118 1 0.46 70.0 13.649 14.7982 0 
226 1 0.46 70.0 6.00869 15.2301 0 
231 1 0.46 70.0 6.59348 15.2633 0 
104 1 0.46 70.0 7.11392 15.3357 0 
170 1 0.46 70.0 7.61732 15.2418 0 
103 1 0.46 70.0 8.06514 15.4259 0 
186 1 0.46 70.0 8.52714 15.4356 0 
273 1 0.46 70.0 8.98469 15.4627 0 
294 1 0.46 70.0 9.44186 15.4801 0 
34 1 0.46 70.0 9.90017 15.4904 0 
303 1 0.46 70.0 10.3601 15.4907 0 
158 1 0.46 70.0 10.8253 15.4795 0 
95 1 0.46 70.0 11.298 15.4541 0 
197 1 0.46 70.0 11.7735 15.4171 0 
64 1 0.46 70.0 12.2671 15.3828 0 
58 1 0.46 70.0 12.7781 15.3408 0 
67 1 0.46 70.0 13.3481 15.361 0 
35 1 0.46 70.0 13.9346 15.3325 0 
92 1 0.46 70.0 5.70009 15.7817 0 
60 1 0.46 70.0 6.31742 15.7484 0 
212 1 0.46 70.0 6.859 15.7749 0 
16 1 0.46 70.0 7.39459 15.7496 0 
221 1 0.46 70.0 7.85258 15.8302 0 
89 1 0.46 70.0 8.32567 15.8561 0 
50 1 0.46 70.0 8.78395 15.8763 0 
162 1 0.46 70.0 9.24064 15.8925 0 
250 1 0.46 70.0 9.69621 15.9014 0 
130 1 0.46 70.0 10.1524 15.9011 0 
145 1 0.46 70.0 10.6092 15.8957 0 
100 1 0.46 70.0 11.0669 15.8808 0 
53 1 0.46 70.0 11.5275 15.859 0 
61 1 0.46 70.0 11.9995 15.8298 0 
292 1 0.46 70.0 12.4894 15.7996 0 
246 1 0.46 70.0 13.0038 15.7679 0 
72 1 0.46 70.0 13.5995 15.8366 0 
263 1 0.46 70.0 14.1892 15.834 0 
80 1 0.46 70.0 5.43629 16.319 0 
195 1 0.46 70.0 6.07529 16.2203 0 
19 1 0.46 70.0 6.6218 16.2158 0 
59 1 0.46 70.0 7.15886 16.1856 0 
49 1 0.46 70.0 7.63653 16.2329 0 
167 1 0.46 70.0 8.10821 16.2592 0 
238 1 0.46 70.0 8.56672 16.2794 0 
120 1 0.46 70.0 9.02236 16.2939 0 
209 1 0.46 70.0 9.47581 16.3015 0 
256 1 0.46 70.0 9.92874 16.3014 0 
164 1 0.46 70.0 10.3817 16.2988 0 
166 1 0.46 70.0 10.8353 16.2937 0 
216 1 0.46 70.0 11.291 16.2803 0 
134 1 0.46 70.0 11.7491 16.2605 0 
276 1 0.46 70.0 12.2154 16.2355 0 
232 1 0.46 70.0 12.6992 16.2089 0 
51 1 0.46 70.0 13.2062 16.1846 0 
96 1 0.46 70.0 13.7658 16.3338 0 
191 1 0.46 70.0 14.2751 16.3631 0 
208 1 0.46 70.0 14.7963 16.1501 0 
76 1 0.46 70.0 4.81966 16.5879 0 
4 1 0.46 70.0 5.8595 16.6851 0 
225 1 0.46 70.0 6.39672 16.6587 0 
98 1 0.46 70.0 6.94043 16.6033 0 
157 1 0.46 70.0 7.42204 16.6353 0 
82 1 0.46 70.0 7.89014 16.6592 0 
22 1 0.46 70.0 8.34816 16.6781 0 
179 1 0.46 70.0 8.80319 16.6911 0 
245 1 0.46 70.0 9.25554 16.6977 0 
281 1 0.46 70.0 9.70617 16.6992 0 
255 1 0.46 70.0 10.1568 16.6981 0 
113 1 0.46 70.0 10.6075 16.6946 0 
68 1 0.46 70.0 11.0585 16.6893 0 
106 1 0.46 70.0 11.5118 16.6779 0 
265 1 0.46 70.0 11.9678 16.6611 0 
293 1 0.46 70.0 12.4265 16.6419 0 
298 1 0.46 70.0 12.8937 16.624 0 
26 1 0.46 70.0 13.3721 16.6122 0 
124 1 0.46 70.0 14.0185 16.8317 0 
200 1 0.46 70.0 14.5646 16.7976 0 
152 1 0.46 70.0 15.1385 16.714 0 
108 1 0.46 70.0 4.83954 17.3115 0 
155 1 0.46 70.0 5.28011 16.9049 0 
220 1 0.46 70.0 5.71174 17.1663 0 
41 1 0.46 70.0 6.19358 17.1169 0 
269 1 0.46 70.0 6.73292 17.0129 0 
260 1 0.46 70.0 7.21039 17.0382 0 
217 1 0.46 70.0 7.67304 17.0573 0 
287 1 0.46 70.0 8.13018 17.0737 0 
286 1 0.46 70.0 8.5843 17.085 0 
224 1 0.46 70.0 9.03554 17.091 0 
46 1 0.46 70.0 9.48481 17.0945 0 
102 1 0.46 70.0 9.93365 17.0952 0 
278 1 0.46 70.0 10.3822 17.0931 0 
234 1 0.46 70.0 10.8305 17.0883 0 
57 1 0.46 70.0 11.2802 17.0823 0 
138 1 0.46 70.0 11.7315 17.0733 0 
249 1 0.46 70.0 12.1854 17.06 0 
173 1 0.46 70.0 12.6423 17.0451 0 
229 1 0.46 70.0 13.1028 17.0329 0 
93 1 0.46 70.0 13.5834 17.0164 0 
271 1 0.46 70.0 14.3082 17.2792 0 
244 1 0.46 70.0 14.8554 17.2462 0 
147 1 0.46 70.0 15.4855 17.2854 0 
29 1 0.46 70.0 5.36443 17.5269 0 
177 1 0.46 70.0 5.91204 17.6089 0 
227 1 0.46 70.0 6.53404 17.4247 0 
3 1 0.46 70.0 6.99832 17.4404 0 
79 1 0.46 70.0 7.45691 17.4542 0 
128 1 0.46 70.0 7.91248 17.467 0 
141 1 0.46 70.0 8.36515 17.4758 0 
169 1 0.46 70.0 8.81588 17.482 0 
5 1 0.46 70.0 9.26493 17.487 0 
17 1 0.46 70.0 9.71217 17.4898 0 
99 1 0.46 70.0 10.1594 17.4894 0 
266 1 0.46 70.0 10.6066 17.4859 0 
254 1 0.46 70.0 11.054 17.48 0 
45 1 0.46 70.0 11.5039 17.4726 0 
252 1 0.46 70.0 11.9557 17.464 0 
267 1 0.46 70.0 12.4097 17.4535 0 
253 1 0.46 70.0 12.8669 17.4426 0 
237 1 0.46 70.0 13.3347 17.429 0 
242 1 0.46 70.0 13.8348 17.3978 0 
176 1 0.46 70.0 14.5751 17.7261 0 
48 1 0.46 70.0 15.111 17.7153 0 
163 1 0.46 70.0 4.45764 17.8082 0 
112 1 0.46 70.0 5.03446 17.9242 0 
37 1 0.46 70.0 5.59033 18.0081 0 
131 1 0.46 70.0 6.0424 18.1855 0 
146 1 0.46 70.0 6.3172 17.8235 0 
223 1 0.46 70.0 6.77735 17.8388 0 
199 1 0.46 70.0 7.23511 17.8471 0 
140 1 0.46 70.0 7.69032 17.8563 0 
24 1 0.46 70.0 8.14362 17.8642 0 
121 1 0.46 70.0 8.59516 17.8712 0 
277 1 0.46 70.0 9.04436 17.8769 0 
248 1 0.46 70.0 9.49114 17.8814 0 
270 1 0.46 70.0 9.93748 17.883 0 
149 1 0.46 70.0 10.3836 17.8811 0 
180 1 0.46 70.0 10.8296 17.8758 0 
171 1 0.46 70.0 11.278 17.869 0 
111 1 0.46 70.0 11.7289 17.8613 0 
86 1 0.46 70.0 12.1823 17.8525 0 
21 1 0.46 70.0 12.6384 17.8431 0 
91 1 0.46 70.0 13.0978 17.8348 0 
105 1 0.46 70.0 13.5752 17.8181 0 
11 1 0.46 70.0 14.0753 17.7883 0 
143 1 0.46 70.0 13.814 18.2083 0 
296 1 0.46 70.0 14.3229 18.1784 0 
62 1 0.46 70.0 14.8695 18.1773 0 
172 1 0.46 70.0 15.5298 18.0509 0 
230 1 0.46 70.0 4.15718 18.5013 0 
133 1 0.46 70.0 4.71049 18.3678 0 
78 1 0.46 70.0 5.27834 18.4099 0 
154 1 0.46 70.0 5.76212 18.5457 0 
9 1 0.46 70.0 6.28431 18.6046 0 
32 1 0.46 70.0 6.54123 18.2293 0 
109 1 0.46 70.0 6.77481 18.6239 0 
241 1 0.46 70.0 7.0068 18.2365 0 
165 1 0.46 70.0 7.46467 18.244 0 
70 1 0.46 70.0 7.23685 18.6308 0 
148 1 0.46 70.0 7.91994 18.2516 0 
235 1 0.46 70.0 7.69395 18.6376 0 
27 1 0.46 70.0 8.14836 18.6439 0 
87 1 0.46 70.0 8.37273 18.2583 0 
151 1 0.46 70.0 8.82312 18.2644 0 
295 1 0.46 70.0 8.6001 18.6497 0 
290 1 0.46 70.0 9.27098 18.2697 0 
156 1 0.46 70.0 9.0491 18.6553 0 
10 1 0.46 70.0 9.71645 18.2736 0 
119 1 0.46 70.0 9.49501 18.6607 0 
18 1 0.46 70.0 10.1619 18.2736 0 
268 1 0.46 70.0 9.94038 18.6631 0 
116 1 0.46 70.0 10.6075 18.2698 0 
117 1 0.46 70.0 10.3855 18.6613 0 
285 1 0.46 70.0 11.0537 18.2631 0 
136 1 0.46 70.0 10.8305 18.6552 0 
94 1 0.46 70.0 11.5029 18.2559 0 
90 1 0.46 70.0 11.2782 18.6482 0 
178 1 0.46 70.0 11.7287 18.6414 0 
28 1 0.46 70.0 11.9549 18.2482 0 
189 1 0.46 70.0 12.4096 18.2401 0 
258 1 0.46 70.0 12.1819 18.6344 0 
153 1 0.46 70.0 12.8671 18.2318 0 
66 1 0.46 70.0 12.6379 18.6271 0 
144 1 0.46 70.0 13.3316 18.2247 0 
85 1 0.46 70.0 13.0968 18.6196 0 
122 1 0.46 70.0 13.5661 18.6147 0 
8 1 0.46 70.0 14.053 18.5987 0 
219 1 0.46 70.0 14.5654 18.5739 0 
188 1 0.46 70.0 15.2137 18.5718 0 
23 1 0.46 70.0 15.7956 18.5562 0 
73 1 0.46 70.0 4.37953 19.0398 0 
204 1 0.46 70.0 4.97775 18.8272 0 
65 1 0.46 70.0 5.49421 18.9193 0 
187 1 0.46 70.0 6.00913 18.967 0 
115 1 0.46 70.0 6.52322 18.9989 0 
192 1 0.46 70.0 7.00622 19.0162 0 
43 1 0.46 70.0 7.46565 19.0229 0 
205 1 0.46 70.0 7.92189 19.0286 0 
181 1 0.46 70.0 8.37534 19.0338 0 
193 1 0.46 70.0 8.82599 19.0387 0 
31 1 0.46 70.0 9.2739 19.0442 0 
150 1 0.46 70.0 9.71895 19.0491 0 
63 1 0.46 70.0 10.1643 19.0496 0 
161 1 0.46 70.0 10.6096 19.0456 0 
33 1 0.46 70.0 11.0552 19.0384 0 
228 1 0.46 70.0 11.504 19.0321 0 
81 1 0.46 70.0 11.9556 19.0262 0 
125 1 0.46 70.0 12.41 19.0203 0 
126 1 0.46 70.0 12.8671 19.014 0 
236 1 0.46 70.0 13.3282 19.0077 0 
107 1 0.46 70.0 13.8034 19.0042 0 
139 1 0.46 70.0 14.3012 18.9848 0 
71 1 0.46 70.0 14.8504 18.9376 0 
52 1 0.46 70.0 15.4956 19.077 0 
280 1 0.46 70.0 16.0854 19.0875 0 
239 1 0.46 70.0 4.00239 19.5444 0 
184 1 0.46 70.0 4.83827 19.3038 0 
196 1 0.46 70.0 5.33217 19.3493 0 
39 1 0.46 70.0 5.8173 19.3795 0 
259 1 0.46 70.0 6.29394 19.387 0 
297 1 0.46 70.0 6.76793 19.3969 0 
127 1 0.46 70.0 7.23541 19.4077 0 
257 1 0.46 70.0 7.69343 19.413 0 
264 1 0.46 70.0 8.14863 19.4173 0 
101 1 0.46 70.0 8.60086 19.4213 0 
174 1 0.46 70.0 9.05005 19.4256 0 
279 1 0.46 70.0 9.49607 19.4314 0 
282 1 0.46 70.0 9.94222 19.434 0 
247 1 0.46 70.0 10.3883 19.4328 0 
202 1 0.46 70.0 10.8332 19.4266 0 
284 1 0.46 70.0 11.2806 19.4207 0 
214 1 0.46 70.0 11.7306 19.416 0 
175 1 0.46 70.0 12.1834 19.4114 0 
240 1 0.46 70.0 12.639 19.4066 0 
74 1 0.46 70.0 13.0973 19.4014 0 
218 1 0.46 70.0 13.563 19.3962 0 
83 1 0.46 70.0 14.0474 19.3909 0 
289 1 0.46 70.0 14.5547 19.3675 0 
159 1 0.46 70.0 15.0696 19.3535 0 
1 1 0.46 70.0 4.53454 19.7188 0 
97 1 0.46 70.0 5.07778 19.7704 0 
201 1 0.46 70.0 5.58556 19.7763 0 
215 1 0.46 70.0 6.06964 19.7828 0 
183 1 0.46 70.0 6.53772 19.786 0 
194 1 0.46 70.0 7.001 19.791 0 
274 1 0.46 70.0 7.46289 19.7975 0 
243 1 0.46 70.0 7.9202 19.8009 0 
44 1 0.46 70.0 8.37429 19.8038 0 
20 1 0.46 70.0 8.82524 19.8069 0 
291 1 0.46 70.0 9.27331 19.8104 0 
2 1 0.46 70.0 9.71941 19.8145 0 
15 1 0.46 70.0 10.1667 19.8149 0 
135 1 0.46 70.0 10.6138 19.813 0 
283 1 0.46 70.0 11.0592 19.8073 0 
38 1 0.46 70.0 11.5072 19.8037 0 
30 1 0.46 70.0 11.9583 19.8004 0 
203 1 0.46 70.0 12.4125 19.7972 0 
75 1 0.46 70.0 12.8696 19.7937 0 
137 1 0.46 70.0 13.3297 19.7893 0 
160 1 0.46 70.0 13.8032 19.7834 0 
300 1 0.46 70.0 14.2935 19.7778 0 
123 1 0.46 70.0 14.8012 19.7736 0 
288 1 0.46 70.0 15.3552 19.7449 0 
77 1 0.46 70.0 15.8805 19.6371 0 
