# LAMMPS data file for rigid bodies

303 atoms

1 atom types

0.0 	 20.0 	 xlo xhi 
0.0 	 20.0 	 ylo yhi 
-1.0 	 1.0 	 zlo zhi 

Atoms

101 1 0.46 70.0 8.35691 13.7307 0 
233 1 0.46 70.0 8.95044 13.5674 0 
225 1 0.46 70.0 9.55814 13.4055 0 
272 1 0.46 70.0 10.3379 13.6238 0 
179 1 0.46 70.0 10.9431 13.5218 0 
190 1 0.46 70.0 7.20168 14.1898 0 
293 1 0.46 70.0 7.77784 13.9414 0 
6 1 0.46 70.0 8.76195 14.1521 0 
143 1 0.46 70.0 9.30323 14.0095 0 
87 1 0.46 70.0 9.83833 13.8922 0 
13 1 0.46 70.0 10.691 14.1019 0 
15 1 0.46 70.0 11.2417 14.0205 0 
301 1 0.46 70.0 11.8019 13.8514 0 
23 1 0.46 70.0 6.61127 14.4472 0 
8 1 0.46 70.0 7.677 14.5295 0 
104 1 0.46 70.0 8.22122 14.3261 0 
84 1 0.46 70.0 9.14232 14.531 0 
269 1 0.46 70.0 9.66237 14.408 0 
39 1 0.46 70.0 10.194 14.2643 0 
240 1 0.46 70.0 10.5335 14.6443 0 
105 1 0.46 70.0 11.0314 14.5424 0 
50 1 0.46 70.0 11.5529 14.4687 0 
76 1 0.46 70.0 12.0774 14.3675 0 
21 1 0.46 70.0 12.6329 14.2252 0 
250 1 0.46 70.0 13.4061 14.6282 0 
132 1 0.46 70.0 6.59658 15.0223 0 
159 1 0.46 70.0 7.12861 14.779 0 
114 1 0.46 70.0 7.57504 15.0559 0 
275 1 0.46 70.0 8.10437 14.8507 0 
221 1 0.46 70.0 8.6252 14.6777 0 
292 1 0.46 70.0 9.00384 15.0171 0 
182 1 0.46 70.0 9.5061 14.8863 0 
28 1 0.46 70.0 10.0221 14.7612 0 
3 1 0.46 70.0 10.848 15.0342 0 
263 1 0.46 70.0 11.335 14.97 0 
185 1 0.46 70.0 11.8288 14.9167 0 
224 1 0.46 70.0 12.3301 14.8463 0 
155 1 0.46 70.0 12.8514 14.7642 0 
129 1 0.46 70.0 5.51553 15.5118 0 
184 1 0.46 70.0 6.0529 15.2049 0 
228 1 0.46 70.0 7.04616 15.3292 0 
150 1 0.46 70.0 7.48374 15.5551 0 
163 1 0.46 70.0 7.98316 15.3424 0 
219 1 0.46 70.0 8.49407 15.1639 0 
138 1 0.46 70.0 8.85809 15.4728 0 
35 1 0.46 70.0 9.36485 15.3429 0 
158 1 0.46 70.0 9.85952 15.2232 0 
298 1 0.46 70.0 10.3574 15.118 0 
174 1 0.46 70.0 10.6728 15.4826 0 
208 1 0.46 70.0 11.1495 15.4337 0 
215 1 0.46 70.0 11.6279 15.393 0 
270 1 0.46 70.0 12.116 15.3465 0 
125 1 0.46 70.0 12.6225 15.2865 0 
153 1 0.46 70.0 13.161 15.2188 0 
199 1 0.46 70.0 13.7459 15.1426 0 
165 1 0.46 70.0 6.04669 15.8115 0 
32 1 0.46 70.0 6.53381 15.5702 0 
70 1 0.46 70.0 6.96279 15.8507 0 
241 1 0.46 70.0 7.88231 15.8224 0 
97 1 0.46 70.0 8.3604 15.6305 0 
171 1 0.46 70.0 8.71939 15.9169 0 
254 1 0.46 70.0 9.20536 15.774 0 
246 1 0.46 70.0 9.70568 15.6639 0 
17 1 0.46 70.0 10.1929 15.5619 0 
156 1 0.46 70.0 10.0317 15.9906 0 
81 1 0.46 70.0 10.5095 15.9114 0 
109 1 0.46 70.0 10.9722 15.8669 0 
82 1 0.46 70.0 11.4384 15.8383 0 
107 1 0.46 70.0 11.9129 15.8049 0 
237 1 0.46 70.0 12.4013 15.7586 0 
58 1 0.46 70.0 12.9149 15.7062 0 
56 1 0.46 70.0 13.4643 15.6636 0 
88 1 0.46 70.0 14.0722 15.6214 0 
223 1 0.46 70.0 5.03253 16.3709 0 
181 1 0.46 70.0 5.54518 16.091 0 
255 1 0.46 70.0 6.02848 16.3647 0 
248 1 0.46 70.0 6.49611 16.1143 0 
142 1 0.46 70.0 6.91948 16.363 0 
92 1 0.46 70.0 7.39788 16.0296 0 
94 1 0.46 70.0 7.79041 16.287 0 
226 1 0.46 70.0 8.25409 16.0961 0 
128 1 0.46 70.0 8.62308 16.3665 0 
222 1 0.46 70.0 9.06832 16.2114 0 
152 1 0.46 70.0 9.53717 16.0884 0 
2 1 0.46 70.0 9.85884 16.41 0 
180 1 0.46 70.0 10.339 16.3325 0 
100 1 0.46 70.0 10.7968 16.2896 0 
60 1 0.46 70.0 11.2553 16.2605 0 
72 1 0.46 70.0 11.7167 16.2383 0 
211 1 0.46 70.0 12.1875 16.2069 0 
59 1 0.46 70.0 12.6735 16.1628 0 
99 1 0.46 70.0 13.184 16.1251 0 
148 1 0.46 70.0 13.7286 16.115 0 
33 1 0.46 70.0 14.2946 16.1314 0 
127 1 0.46 70.0 14.8722 16.1536 0 
276 1 0.46 70.0 4.58436 16.8122 0 
86 1 0.46 70.0 5.55214 16.6467 0 
204 1 0.46 70.0 6.45901 16.6414 0 
213 1 0.46 70.0 6.87154 16.8504 0 
268 1 0.46 70.0 7.35995 16.4948 0 
245 1 0.46 70.0 7.75127 16.7678 0 
252 1 0.46 70.0 8.16386 16.5497 0 
209 1 0.46 70.0 8.53047 16.8136 0 
93 1 0.46 70.0 8.97306 16.66 0 
91 1 0.46 70.0 9.39803 16.522 0 
206 1 0.46 70.0 9.70473 16.8354 0 
234 1 0.46 70.0 10.1626 16.7455 0 
66 1 0.46 70.0 10.6164 16.7058 0 
55 1 0.46 70.0 11.07 16.6779 0 
282 1 0.46 70.0 11.5255 16.6558 0 
216 1 0.46 70.0 11.9834 16.6358 0 
133 1 0.46 70.0 12.4477 16.6044 0 
302 1 0.46 70.0 12.9277 16.569 0 
266 1 0.46 70.0 13.4339 16.5498 0 
247 1 0.46 70.0 13.973 16.5798 0 
24 1 0.46 70.0 14.5287 16.6585 0 
11 1 0.46 70.0 15.0733 16.7379 0 
47 1 0.46 70.0 5.12646 16.9995 0 
195 1 0.46 70.0 5.62854 17.1887 0 
110 1 0.46 70.0 6.01377 16.8921 0 
61 1 0.46 70.0 6.38436 17.1688 0 
4 1 0.46 70.0 6.82075 17.3076 0 
69 1 0.46 70.0 7.31762 16.9491 0 
160 1 0.46 70.0 7.68406 17.2294 0 
151 1 0.46 70.0 8.13208 17.0224 0 
157 1 0.46 70.0 8.87014 17.092 0 
26 1 0.46 70.0 9.31563 17.0445 0 
201 1 0.46 70.0 9.98665 17.1532 0 
196 1 0.46 70.0 10.4285 17.1154 0 
300 1 0.46 70.0 10.8724 17.0871 0 
117 1 0.46 70.0 11.321 17.0647 0 
274 1 0.46 70.0 11.7739 17.0465 0 
262 1 0.46 70.0 12.2305 17.029 0 
16 1 0.46 70.0 12.6897 17.0034 0 
144 1 0.46 70.0 13.1649 16.9769 0 
45 1 0.46 70.0 13.6669 16.9803 0 
232 1 0.46 70.0 14.2112 17.0507 0 
121 1 0.46 70.0 14.7498 17.2593 0 
205 1 0.46 70.0 15.3358 17.2353 0 
251 1 0.46 70.0 4.53195 17.4167 0 
124 1 0.46 70.0 5.0719 17.5343 0 
291 1 0.46 70.0 5.55682 17.6633 0 
9 1 0.46 70.0 6.02973 17.5437 0 
256 1 0.46 70.0 6.47799 17.6659 0 
288 1 0.46 70.0 6.92442 17.7653 0 
89 1 0.46 70.0 7.26552 17.3993 0 
278 1 0.46 70.0 8.06138 17.4645 0 
285 1 0.46 70.0 8.49856 17.3644 0 
189 1 0.46 70.0 8.92238 17.514 0 
186 1 0.46 70.0 9.35805 17.491 0 
149 1 0.46 70.0 9.78573 17.526 0 
126 1 0.46 70.0 10.2318 17.5212 0 
51 1 0.46 70.0 10.6714 17.4954 0 
78 1 0.46 70.0 11.114 17.4723 0 
122 1 0.46 70.0 11.5607 17.453 0 
193 1 0.46 70.0 12.0114 17.4377 0 
44 1 0.46 70.0 12.4659 17.4228 0 
96 1 0.46 70.0 12.9237 17.4027 0 
260 1 0.46 70.0 13.3902 17.3867 0 
217 1 0.46 70.0 13.884 17.4128 0 
267 1 0.46 70.0 14.3266 17.5591 0 
42 1 0.46 70.0 15.7984 17.683 0 
194 1 0.46 70.0 4.13523 17.92 0 
27 1 0.46 70.0 4.71403 17.9894 0 
198 1 0.46 70.0 5.23466 18.0628 0 
120 1 0.46 70.0 5.76257 18.0802 0 
123 1 0.46 70.0 6.22157 18.0634 0 
74 1 0.46 70.0 6.6719 18.1495 0 
303 1 0.46 70.0 7.12425 18.2087 0 
137 1 0.46 70.0 7.37247 17.8289 0 
230 1 0.46 70.0 7.81489 17.8361 0 
207 1 0.46 70.0 8.26671 17.8568 0 
64 1 0.46 70.0 8.69981 17.8833 0 
294 1 0.46 70.0 9.14578 17.8959 0 
116 1 0.46 70.0 9.57784 17.9083 0 
244 1 0.46 70.0 10.0192 17.9105 0 
40 1 0.46 70.0 10.4628 17.8989 0 
134 1 0.46 70.0 10.9037 17.8778 0 
73 1 0.46 70.0 11.347 17.8584 0 
176 1 0.46 70.0 11.7937 17.8422 0 
31 1 0.46 70.0 12.2439 17.8292 0 
258 1 0.46 70.0 12.6977 17.8168 0 
277 1 0.46 70.0 12.4733 18.2208 0 
264 1 0.46 70.0 13.1552 17.8012 0 
265 1 0.46 70.0 12.9259 18.2114 0 
135 1 0.46 70.0 13.6271 17.79 0 
119 1 0.46 70.0 13.3807 18.2008 0 
242 1 0.46 70.0 13.838 18.1915 0 
218 1 0.46 70.0 14.2627 18.0281 0 
5 1 0.46 70.0 14.7304 17.8715 0 
239 1 0.46 70.0 15.2235 17.779 0 
41 1 0.46 70.0 4.35497 18.4829 0 
197 1 0.46 70.0 4.91781 18.5039 0 
1 1 0.46 70.0 5.47584 18.4956 0 
115 1 0.46 70.0 5.97388 18.5091 0 
202 1 0.46 70.0 6.43144 18.5411 0 
65 1 0.46 70.0 6.88505 18.5956 0 
95 1 0.46 70.0 7.34077 18.613 0 
112 1 0.46 70.0 7.58007 18.2292 0 
175 1 0.46 70.0 7.79427 18.6286 0 
48 1 0.46 70.0 8.02812 18.2414 0 
80 1 0.46 70.0 8.24261 18.6437 0 
85 1 0.46 70.0 8.47304 18.2638 0 
166 1 0.46 70.0 8.69075 18.6586 0 
259 1 0.46 70.0 8.91833 18.2783 0 
280 1 0.46 70.0 9.36049 18.2921 0 
29 1 0.46 70.0 9.80197 18.2968 0 
161 1 0.46 70.0 10.2453 18.2921 0 
102 1 0.46 70.0 10.688 18.2784 0 
75 1 0.46 70.0 10.9121 18.6583 0 
141 1 0.46 70.0 11.1308 18.2608 0 
7 1 0.46 70.0 11.3565 18.644 0 
139 1 0.46 70.0 11.5757 18.2449 0 
299 1 0.46 70.0 11.803 18.6314 0 
283 1 0.46 70.0 12.0231 18.2316 0 
103 1 0.46 70.0 12.2521 18.6209 0 
167 1 0.46 70.0 12.7043 18.6121 0 
212 1 0.46 70.0 13.1599 18.6037 0 
243 1 0.46 70.0 13.619 18.5964 0 
118 1 0.46 70.0 14.1031 18.5639 0 
170 1 0.46 70.0 14.557 18.4239 0 
34 1 0.46 70.0 15.0457 18.3172 0 
296 1 0.46 70.0 15.6057 18.2556 0 
146 1 0.46 70.0 4.03372 19.0118 0 
111 1 0.46 70.0 4.60563 18.9959 0 
203 1 0.46 70.0 5.2078 18.9133 0 
295 1 0.46 70.0 5.71883 18.9247 0 
62 1 0.46 70.0 6.19145 18.9469 0 
297 1 0.46 70.0 6.64778 18.9852 0 
220 1 0.46 70.0 7.10471 18.9998 0 
236 1 0.46 70.0 7.55967 19.0129 0 
19 1 0.46 70.0 8.01192 19.0259 0 
52 1 0.46 70.0 8.46196 19.0377 0 
147 1 0.46 70.0 9.13647 18.6711 0 
79 1 0.46 70.0 8.91053 19.0488 0 
106 1 0.46 70.0 9.58077 18.6797 0 
131 1 0.46 70.0 9.35758 19.0578 0 
168 1 0.46 70.0 10.025 18.6799 0 
279 1 0.46 70.0 9.8025 19.0628 0 
68 1 0.46 70.0 10.469 18.672 0 
136 1 0.46 70.0 10.2473 19.06 0 
12 1 0.46 70.0 10.6909 19.0502 0 
54 1 0.46 70.0 11.1358 19.0385 0 
46 1 0.46 70.0 11.5821 19.0276 0 
145 1 0.46 70.0 12.0304 19.0182 0 
18 1 0.46 70.0 12.4815 19.0101 0 
187 1 0.46 70.0 12.9359 19.0029 0 
290 1 0.46 70.0 13.3937 18.9962 0 
98 1 0.46 70.0 13.8642 18.9844 0 
83 1 0.46 70.0 14.3548 18.9477 0 
273 1 0.46 70.0 14.8321 18.8459 0 
200 1 0.46 70.0 15.3478 18.7675 0 
71 1 0.46 70.0 15.9707 18.7469 0 
253 1 0.46 70.0 4.9658 19.3411 0 
154 1 0.46 70.0 5.47518 19.345 0 
210 1 0.46 70.0 5.95419 19.3555 0 
229 1 0.46 70.0 6.41326 19.3789 0 
284 1 0.46 70.0 6.87116 19.3898 0 
238 1 0.46 70.0 7.3269 19.3991 0 
249 1 0.46 70.0 7.78064 19.4089 0 
67 1 0.46 70.0 8.2326 19.4181 0 
177 1 0.46 70.0 8.68275 19.4265 0 
14 1 0.46 70.0 9.13129 19.4341 0 
57 1 0.46 70.0 9.57763 19.441 0 
281 1 0.46 70.0 10.0242 19.4425 0 
53 1 0.46 70.0 10.47 19.4376 0 
183 1 0.46 70.0 10.9144 19.4282 0 
90 1 0.46 70.0 11.3604 19.4198 0 
30 1 0.46 70.0 11.8082 19.4122 0 
108 1 0.46 70.0 12.2583 19.4055 0 
22 1 0.46 70.0 12.7114 19.3995 0 
49 1 0.46 70.0 13.1678 19.3939 0 
231 1 0.46 70.0 13.6284 19.388 0 
130 1 0.46 70.0 14.1079 19.3741 0 
235 1 0.46 70.0 14.6041 19.3463 0 
36 1 0.46 70.0 15.1021 19.2838 0 
140 1 0.46 70.0 15.6411 19.2253 0 
178 1 0.46 70.0 4.14694 19.6001 0 
188 1 0.46 70.0 4.66874 19.7349 0 
173 1 0.46 70.0 5.21975 19.7715 0 
271 1 0.46 70.0 5.71551 19.7738 0 
257 1 0.46 70.0 6.18163 19.7778 0 
63 1 0.46 70.0 6.63975 19.7832 0 
164 1 0.46 70.0 7.09575 19.7886 0 
43 1 0.46 70.0 7.5501 19.7946 0 
289 1 0.46 70.0 8.003 19.8005 0 
25 1 0.46 70.0 8.45441 19.806 0 
113 1 0.46 70.0 8.90424 19.811 0 
77 1 0.46 70.0 9.35248 19.8156 0 
37 1 0.46 70.0 9.79925 19.8196 0 
287 1 0.46 70.0 10.2467 19.8188 0 
227 1 0.46 70.0 10.6921 19.8133 0 
172 1 0.46 70.0 11.1381 19.8078 0 
192 1 0.46 70.0 11.5854 19.8027 0 
214 1 0.46 70.0 12.0347 19.7981 0 
20 1 0.46 70.0 12.4866 19.7938 0 
169 1 0.46 70.0 12.9414 19.7898 0 
10 1 0.46 70.0 13.3995 19.7856 0 
286 1 0.46 70.0 13.865 19.7802 0 
261 1 0.46 70.0 14.3495 19.7747 0 
162 1 0.46 70.0 14.8578 19.7658 0 
38 1 0.46 70.0 15.3911 19.7298 0 
191 1 0.46 70.0 15.996 19.6518 0 
