# LAMMPS data file for rigid bodies

303 atoms

1 atom types

0.0 	 20.0 	 xlo xhi 
0.0 	 20.0 	 ylo yhi 
-1.0 	 1.0 	 zlo zhi 

Atoms

279 1 0.46 70.0 9.92012 13.22 0 
215 1 0.46 70.0 8.77846 13.5953 0 
223 1 0.46 70.0 9.33621 13.4101 0 
124 1 0.46 70.0 10.253 13.677 0 
265 1 0.46 70.0 10.7445 13.3688 0 
294 1 0.46 70.0 11.6271 13.5716 0 
157 1 0.46 70.0 7.69304 14.0154 0 
143 1 0.46 70.0 8.23397 13.7954 0 
11 1 0.46 70.0 8.69974 14.1822 0 
106 1 0.46 70.0 9.20582 14.0046 0 
85 1 0.46 70.0 9.72073 13.8405 0 
104 1 0.46 70.0 10.1054 14.2191 0 
245 1 0.46 70.0 10.62 14.0488 0 
258 1 0.46 70.0 11.1069 13.8234 0 
14 1 0.46 70.0 11.5297 14.182 0 
226 1 0.46 70.0 12.0985 13.9643 0 
110 1 0.46 70.0 6.55335 14.5189 0 
239 1 0.46 70.0 7.14229 14.2562 0 
269 1 0.46 70.0 7.7144 14.5853 0 
128 1 0.46 70.0 8.20292 14.3757 0 
185 1 0.46 70.0 9.11174 14.5365 0 
100 1 0.46 70.0 9.60056 14.3747 0 
97 1 0.46 70.0 10.4941 14.5571 0 
218 1 0.46 70.0 11.0092 14.3848 0 
92 1 0.46 70.0 11.9392 14.5237 0 
285 1 0.46 70.0 12.5399 14.3381 0 
193 1 0.46 70.0 13.3684 14.6124 0 
134 1 0.46 70.0 6.75109 15.0391 0 
5 1 0.46 70.0 7.233 14.8091 0 
35 1 0.46 70.0 8.1594 14.9091 0 
201 1 0.46 70.0 8.63166 14.715 0 
54 1 0.46 70.0 9.02843 15.0363 0 
246 1 0.46 70.0 9.49881 14.8704 0 
150 1 0.46 70.0 9.9884 14.7141 0 
281 1 0.46 70.0 10.3658 15.0301 0 
270 1 0.46 70.0 10.8707 14.8741 0 
229 1 0.46 70.0 11.3954 14.7059 0 
161 1 0.46 70.0 11.7679 15.0283 0 
38 1 0.46 70.0 12.2947 14.8982 0 
84 1 0.46 70.0 12.8323 14.8032 0 
10 1 0.46 70.0 13.7668 15.1064 0 
105 1 0.46 70.0 5.65818 15.4595 0 
61 1 0.46 70.0 6.19857 15.1581 0 
89 1 0.46 70.0 6.72717 15.5523 0 
72 1 0.46 70.0 7.22015 15.3394 0 
29 1 0.46 70.0 7.69124 15.1184 0 
259 1 0.46 70.0 8.11238 15.4122 0 
233 1 0.46 70.0 8.56899 15.2184 0 
12 1 0.46 70.0 8.95957 15.517 0 
50 1 0.46 70.0 9.40592 15.3439 0 
283 1 0.46 70.0 9.8759 15.1835 0 
26 1 0.46 70.0 10.2404 15.4826 0 
200 1 0.46 70.0 10.73 15.3318 0 
103 1 0.46 70.0 11.241 15.1798 0 
227 1 0.46 70.0 11.6033 15.487 0 
123 1 0.46 70.0 12.1133 15.3863 0 
48 1 0.46 70.0 12.6306 15.3032 0 
252 1 0.46 70.0 13.1892 15.2199 0 
251 1 0.46 70.0 6.2259 15.7357 0 
238 1 0.46 70.0 7.18518 15.8356 0 
289 1 0.46 70.0 7.65332 15.6203 0 
162 1 0.46 70.0 8.06644 15.8893 0 
190 1 0.46 70.0 8.5145 15.6978 0 
2 1 0.46 70.0 8.90244 15.9774 0 
117 1 0.46 70.0 9.33814 15.8062 0 
295 1 0.46 70.0 9.77366 15.6382 0 
195 1 0.46 70.0 10.1288 15.9283 0 
36 1 0.46 70.0 10.597 15.7719 0 
180 1 0.46 70.0 11.0892 15.6247 0 
170 1 0.46 70.0 11.4434 15.918 0 
220 1 0.46 70.0 11.9365 15.8366 0 
213 1 0.46 70.0 12.4331 15.7701 0 
303 1 0.46 70.0 12.9531 15.6984 0 
243 1 0.46 70.0 13.5238 15.6506 0 
196 1 0.46 70.0 14.1261 15.5836 0 
4 1 0.46 70.0 5.20902 16.2892 0 
181 1 0.46 70.0 5.73076 16.0245 0 
16 1 0.46 70.0 6.2306 16.2661 0 
39 1 0.46 70.0 6.70957 16.0489 0 
56 1 0.46 70.0 7.15454 16.3137 0 
90 1 0.46 70.0 7.61257 16.0966 0 
278 1 0.46 70.0 8.02082 16.3468 0 
262 1 0.46 70.0 8.46393 16.1558 0 
114 1 0.46 70.0 8.83525 16.4303 0 
176 1 0.46 70.0 9.2688 16.2592 0 
159 1 0.46 70.0 9.69935 16.0937 0 
6 1 0.46 70.0 10.0573 16.3821 0 
9 1 0.46 70.0 10.4816 16.2148 0 
263 1 0.46 70.0 10.9501 16.0613 0 
119 1 0.46 70.0 11.3021 16.3511 0 
152 1 0.46 70.0 11.7683 16.2644 0 
52 1 0.46 70.0 12.2433 16.215 0 
296 1 0.46 70.0 12.7326 16.157 0 
147 1 0.46 70.0 13.2498 16.0979 0 
158 1 0.46 70.0 13.8346 16.092 0 
115 1 0.46 70.0 14.4327 16.0783 0 
8 1 0.46 70.0 15.0901 16.337 0 
155 1 0.46 70.0 4.72184 16.7163 0 
138 1 0.46 70.0 5.74056 16.5645 0 
250 1 0.46 70.0 6.2259 16.7632 0 
266 1 0.46 70.0 6.69304 16.5307 0 
302 1 0.46 70.0 7.12396 16.7792 0 
164 1 0.46 70.0 7.5737 16.5564 0 
153 1 0.46 70.0 7.9656 16.801 0 
277 1 0.46 70.0 8.40034 16.609 0 
249 1 0.46 70.0 8.76863 16.8806 0 
260 1 0.46 70.0 9.19873 16.7087 0 
66 1 0.46 70.0 9.62814 16.544 0 
235 1 0.46 70.0 9.98759 16.8293 0 
204 1 0.46 70.0 10.4174 16.6802 0 
116 1 0.46 70.0 10.8266 16.4996 0 
217 1 0.46 70.0 11.1596 16.779 0 
253 1 0.46 70.0 11.6093 16.6922 0 
69 1 0.46 70.0 12.0656 16.6432 0 
182 1 0.46 70.0 12.5289 16.602 0 
63 1 0.46 70.0 13.0093 16.5491 0 
298 1 0.46 70.0 13.5176 16.5023 0 
32 1 0.46 70.0 14.0898 16.5682 0 
280 1 0.46 70.0 14.6087 16.6231 0 
189 1 0.46 70.0 4.82548 17.3098 0 
113 1 0.46 70.0 5.27569 16.8977 0 
192 1 0.46 70.0 5.76971 17.0865 0 
198 1 0.46 70.0 6.23502 17.2426 0 
76 1 0.46 70.0 6.67494 16.9998 0 
108 1 0.46 70.0 7.08557 17.239 0 
46 1 0.46 70.0 7.52542 17.0123 0 
22 1 0.46 70.0 7.9142 17.2533 0 
21 1 0.46 70.0 8.34301 17.0608 0 
188 1 0.46 70.0 8.71041 17.3304 0 
222 1 0.46 70.0 9.13063 17.1555 0 
205 1 0.46 70.0 9.55802 16.989 0 
93 1 0.46 70.0 9.91665 17.2693 0 
126 1 0.46 70.0 10.3514 17.1241 0 
37 1 0.46 70.0 10.7944 17.0321 0 
91 1 0.46 70.0 11.43 17.1104 0 
95 1 0.46 70.0 11.8796 17.0622 0 
28 1 0.46 70.0 12.3349 17.0325 0 
71 1 0.46 70.0 12.7924 16.9937 0 
236 1 0.46 70.0 13.2611 16.9494 0 
203 1 0.46 70.0 13.7518 16.9175 0 
87 1 0.46 70.0 13.9787 17.3171 0 
80 1 0.46 70.0 14.4112 17.1021 0 
129 1 0.46 70.0 15.0219 17.0183 0 
163 1 0.46 70.0 4.45125 17.7549 0 
27 1 0.46 70.0 5.35592 17.4527 0 
25 1 0.46 70.0 5.83411 17.5942 0 
135 1 0.46 70.0 6.28097 17.7109 0 
73 1 0.46 70.0 6.66496 17.467 0 
274 1 0.46 70.0 7.04764 17.706 0 
24 1 0.46 70.0 7.48076 17.4673 0 
94 1 0.46 70.0 7.86767 17.7043 0 
231 1 0.46 70.0 8.28943 17.511 0 
202 1 0.46 70.0 8.6574 17.7766 0 
301 1 0.46 70.0 9.0733 17.6051 0 
139 1 0.46 70.0 9.48602 17.4293 0 
68 1 0.46 70.0 9.82915 17.7027 0 
275 1 0.46 70.0 10.2666 17.5584 0 
186 1 0.46 70.0 10.7101 17.4737 0 
82 1 0.46 70.0 11.1596 17.4556 0 
171 1 0.46 70.0 11.673 17.4722 0 
211 1 0.46 70.0 12.1262 17.4441 0 
168 1 0.46 70.0 12.5811 17.421 0 
282 1 0.46 70.0 13.038 17.3904 0 
284 1 0.46 70.0 13.4978 17.3581 0 
221 1 0.46 70.0 13.7567 17.7556 0 
247 1 0.46 70.0 14.2654 17.6812 0 
109 1 0.46 70.0 14.757 17.5262 0 
199 1 0.46 70.0 15.3695 17.4947 0 
241 1 0.46 70.0 5.02722 17.8749 0 
286 1 0.46 70.0 5.54422 17.9891 0 
287 1 0.46 70.0 6.0426 18.0997 0 
136 1 0.46 70.0 6.5917 18.0455 0 
288 1 0.46 70.0 7.03368 18.1601 0 
118 1 0.46 70.0 7.44645 17.9217 0 
224 1 0.46 70.0 7.83132 18.1553 0 
219 1 0.46 70.0 8.24026 17.9587 0 
130 1 0.46 70.0 8.60365 18.2172 0 
102 1 0.46 70.0 9.01965 18.0518 0 
65 1 0.46 70.0 9.43401 17.8791 0 
254 1 0.46 70.0 10.1399 17.9763 0 
74 1 0.46 70.0 10.5702 17.9002 0 
98 1 0.46 70.0 11.0093 17.8739 0 
207 1 0.46 70.0 11.4561 17.858 0 
244 1 0.46 70.0 11.9142 17.8488 0 
145 1 0.46 70.0 12.3689 17.8286 0 
261 1 0.46 70.0 12.8251 17.8102 0 
234 1 0.46 70.0 12.6098 18.2154 0 
257 1 0.46 70.0 13.2835 17.7884 0 
78 1 0.46 70.0 13.067 18.2006 0 
133 1 0.46 70.0 13.5305 18.1803 0 
77 1 0.46 70.0 14.0188 18.1375 0 
177 1 0.46 70.0 14.5281 18.0721 0 
184 1 0.46 70.0 15.0509 17.9796 0 
179 1 0.46 70.0 15.7 18.0312 0 
20 1 0.46 70.0 4.09229 18.2693 0 
240 1 0.46 70.0 4.68937 18.3143 0 
172 1 0.46 70.0 5.21774 18.3906 0 
34 1 0.46 70.0 5.70827 18.4692 0 
59 1 0.46 70.0 6.17624 18.5362 0 
156 1 0.46 70.0 6.62846 18.5043 0 
86 1 0.46 70.0 7.06503 18.6118 0 
44 1 0.46 70.0 7.43728 18.3778 0 
271 1 0.46 70.0 7.81216 18.6103 0 
194 1 0.46 70.0 8.1974 18.4087 0 
255 1 0.46 70.0 8.5448 18.6582 0 
3 1 0.46 70.0 8.94779 18.4953 0 
165 1 0.46 70.0 9.38785 18.3086 0 
111 1 0.46 70.0 9.82648 18.2613 0 
125 1 0.46 70.0 10.3766 18.3131 0 
148 1 0.46 70.0 10.8127 18.2785 0 
216 1 0.46 70.0 11.0475 18.6575 0 
131 1 0.46 70.0 11.2539 18.258 0 
58 1 0.46 70.0 11.4916 18.6413 0 
151 1 0.46 70.0 11.7012 18.2436 0 
183 1 0.46 70.0 11.9402 18.6284 0 
212 1 0.46 70.0 12.155 18.2311 0 
144 1 0.46 70.0 12.393 18.6165 0 
99 1 0.46 70.0 12.8483 18.604 0 
18 1 0.46 70.0 13.3065 18.592 0 
23 1 0.46 70.0 13.7766 18.5688 0 
256 1 0.46 70.0 14.2666 18.5324 0 
64 1 0.46 70.0 14.7766 18.4836 0 
33 1 0.46 70.0 15.3178 18.448 0 
121 1 0.46 70.0 4.36161 18.793 0 
47 1 0.46 70.0 4.92485 18.8234 0 
154 1 0.46 70.0 5.43134 18.8807 0 
191 1 0.46 70.0 5.91167 18.9312 0 
40 1 0.46 70.0 6.38085 18.9477 0 
146 1 0.46 70.0 6.8318 18.9923 0 
291 1 0.46 70.0 7.30219 18.9901 0 
300 1 0.46 70.0 7.74516 19.0292 0 
210 1 0.46 70.0 8.18924 18.9474 0 
237 1 0.46 70.0 8.62756 19.0615 0 
45 1 0.46 70.0 9.29861 18.7183 0 
208 1 0.46 70.0 9.05881 19.0592 0 
272 1 0.46 70.0 9.72329 18.6839 0 
19 1 0.46 70.0 9.51334 19.081 0 
175 1 0.46 70.0 9.95035 19.0683 0 
81 1 0.46 70.0 10.1557 18.6779 0 
299 1 0.46 70.0 10.6067 18.6793 0 
141 1 0.46 70.0 10.3903 19.0607 0 
267 1 0.46 70.0 10.8352 19.0522 0 
297 1 0.46 70.0 11.2791 19.037 0 
174 1 0.46 70.0 11.7255 19.0246 0 
248 1 0.46 70.0 12.1753 19.014 0 
292 1 0.46 70.0 12.6286 19.0041 0 
31 1 0.46 70.0 13.0848 18.9944 0 
96 1 0.46 70.0 13.5443 18.9844 0 
127 1 0.46 70.0 14.02 18.963 0 
60 1 0.46 70.0 14.5176 18.9371 0 
17 1 0.46 70.0 15.0433 18.9014 0 
197 1 0.46 70.0 15.721 18.8207 0 
149 1 0.46 70.0 3.98906 19.2551 0 
166 1 0.46 70.0 4.64075 19.2718 0 
1 1 0.46 70.0 5.16843 19.3091 0 
88 1 0.46 70.0 5.66061 19.3429 0 
276 1 0.46 70.0 6.13547 19.3567 0 
30 1 0.46 70.0 6.59318 19.382 0 
242 1 0.46 70.0 7.05135 19.3892 0 
209 1 0.46 70.0 7.50165 19.4022 0 
173 1 0.46 70.0 7.95641 19.409 0 
101 1 0.46 70.0 8.39192 19.4192 0 
55 1 0.46 70.0 8.84227 19.4413 0 
167 1 0.46 70.0 9.28542 19.4449 0 
75 1 0.46 70.0 9.73336 19.4533 0 
51 1 0.46 70.0 10.1763 19.4462 0 
273 1 0.46 70.0 10.6195 19.4381 0 
41 1 0.46 70.0 11.0635 19.4282 0 
232 1 0.46 70.0 11.5088 19.418 0 
122 1 0.46 70.0 11.9567 19.4091 0 
53 1 0.46 70.0 12.4077 19.4013 0 
290 1 0.46 70.0 12.8618 19.3939 0 
264 1 0.46 70.0 13.319 19.387 0 
160 1 0.46 70.0 13.7826 19.3775 0 
169 1 0.46 70.0 14.2675 19.3642 0 
112 1 0.46 70.0 14.7818 19.3459 0 
83 1 0.46 70.0 15.3553 19.2842 0 
120 1 0.46 70.0 16.0187 19.3473 0 
79 1 0.46 70.0 4.33949 19.7149 0 
42 1 0.46 70.0 4.90318 19.7481 0 
107 1 0.46 70.0 5.41568 19.7702 0 
62 1 0.46 70.0 5.89984 19.7741 0 
225 1 0.46 70.0 6.35966 19.7783 0 
7 1 0.46 70.0 6.81661 19.7829 0 
142 1 0.46 70.0 7.26962 19.7903 0 
268 1 0.46 70.0 7.72106 19.7952 0 
132 1 0.46 70.0 8.16766 19.8038 0 
43 1 0.46 70.0 8.61219 19.8105 0 
214 1 0.46 70.0 9.06091 19.8194 0 
13 1 0.46 70.0 9.50623 19.8235 0 
230 1 0.46 70.0 9.95496 19.8249 0 
57 1 0.46 70.0 10.4008 19.8204 0 
49 1 0.46 70.0 10.8445 19.8134 0 
140 1 0.46 70.0 11.2896 19.8073 0 
187 1 0.46 70.0 11.7364 19.8012 0 
67 1 0.46 70.0 12.1857 19.7958 0 
293 1 0.46 70.0 12.6379 19.7907 0 
228 1 0.46 70.0 13.0931 19.7859 0 
137 1 0.46 70.0 13.5512 19.7816 0 
70 1 0.46 70.0 14.0194 19.7769 0 
15 1 0.46 70.0 14.5147 19.7729 0 
206 1 0.46 70.0 15.0462 19.7563 0 
178 1 0.46 70.0 15.6037 19.7333 0 
