# LAMMPS data file for rigid bodies

303 atoms

1 atom types

0.0 	 20.0 	 xlo xhi 
0.0 	 20.0 	 ylo yhi 
-1.0 	 1.0 	 zlo zhi 

Atoms

125 1 0.46 70.0 8.38276 13.6878 0 
233 1 0.46 70.0 8.97955 13.4077 0 
246 1 0.46 70.0 9.87052 13.5329 0 
84 1 0.46 70.0 10.4765 13.4109 0 
135 1 0.46 70.0 11.1198 13.4725 0 
285 1 0.46 70.0 7.84495 13.9865 0 
249 1 0.46 70.0 8.85779 14.023 0 
154 1 0.46 70.0 9.38008 13.8106 0 
76 1 0.46 70.0 9.79578 14.1656 0 
120 1 0.46 70.0 10.2715 13.9829 0 
117 1 0.46 70.0 10.7786 13.9239 0 
24 1 0.46 70.0 11.593 13.8185 0 
157 1 0.46 70.0 12.1317 14.0251 0 
143 1 0.46 70.0 13.1624 14.1346 0 
277 1 0.46 70.0 6.79343 14.5947 0 
265 1 0.46 70.0 7.31085 14.2505 0 
190 1 0.46 70.0 7.85057 14.5767 0 
132 1 0.46 70.0 8.34383 14.2886 0 
116 1 0.46 70.0 8.8147 14.552 0 
184 1 0.46 70.0 9.31 14.3509 0 
274 1 0.46 70.0 10.2371 14.5109 0 
222 1 0.46 70.0 10.7219 14.4667 0 
299 1 0.46 70.0 11.192 14.2306 0 
232 1 0.46 70.0 11.6639 14.4062 0 
71 1 0.46 70.0 12.144 14.6269 0 
191 1 0.46 70.0 12.6163 14.3326 0 
198 1 0.46 70.0 13.6828 14.6017 0 
146 1 0.46 70.0 6.31662 15.0078 0 
151 1 0.46 70.0 7.35901 14.8191 0 
51 1 0.46 70.0 8.32874 14.8222 0 
81 1 0.46 70.0 8.78917 15.0386 0 
101 1 0.46 70.0 9.26526 14.8395 0 
300 1 0.46 70.0 9.75593 14.676 0 
136 1 0.46 70.0 10.1911 14.9897 0 
174 1 0.46 70.0 10.7014 14.9615 0 
199 1 0.46 70.0 11.1728 14.7628 0 
29 1 0.46 70.0 11.7099 14.9121 0 
78 1 0.46 70.0 12.5944 14.8936 0 
138 1 0.46 70.0 13.1098 14.728 0 
160 1 0.46 70.0 14.1744 15.0475 0 
303 1 0.46 70.0 5.89453 15.4612 0 
50 1 0.46 70.0 6.88762 15.1658 0 
250 1 0.46 70.0 7.40945 15.3275 0 
197 1 0.46 70.0 7.86756 15.1164 0 
225 1 0.46 70.0 8.32182 15.321 0 
41 1 0.46 70.0 8.76779 15.4977 0 
80 1 0.46 70.0 9.222 15.3088 0 
196 1 0.46 70.0 9.67545 15.1421 0 
6 1 0.46 70.0 10.0371 15.4359 0 
258 1 0.46 70.0 10.4911 15.3965 0 
105 1 0.46 70.0 10.9458 15.3985 0 
295 1 0.46 70.0 11.3607 15.211 0 
62 1 0.46 70.0 11.7347 15.5099 0 
269 1 0.46 70.0 12.1217 15.1773 0 
239 1 0.46 70.0 12.5807 15.3887 0 
166 1 0.46 70.0 13.0649 15.2576 0 
181 1 0.46 70.0 13.5908 15.1793 0 
193 1 0.46 70.0 5.54872 15.9438 0 
95 1 0.46 70.0 6.46487 15.5783 0 
272 1 0.46 70.0 6.98121 15.6829 0 
226 1 0.46 70.0 7.46984 15.795 0 
133 1 0.46 70.0 7.90597 15.6411 0 
26 1 0.46 70.0 8.34397 15.7994 0 
7 1 0.46 70.0 8.77471 15.9543 0 
242 1 0.46 70.0 9.18192 15.7657 0 
21 1 0.46 70.0 9.6131 15.6202 0 
292 1 0.46 70.0 9.98436 15.8884 0 
256 1 0.46 70.0 10.4385 15.8507 0 
15 1 0.46 70.0 10.8922 15.8542 0 
89 1 0.46 70.0 11.3241 15.7174 0 
118 1 0.46 70.0 12.1602 15.6816 0 
294 1 0.46 70.0 12.6211 15.8481 0 
301 1 0.46 70.0 13.1168 15.7488 0 
163 1 0.46 70.0 13.6364 15.6988 0 
282 1 0.46 70.0 14.1904 15.617 0 
293 1 0.46 70.0 6.12235 16.0246 0 
114 1 0.46 70.0 6.6396 16.0964 0 
179 1 0.46 70.0 7.12396 16.1681 0 
107 1 0.46 70.0 7.58583 16.2373 0 
119 1 0.46 70.0 8.03116 16.1554 0 
158 1 0.46 70.0 8.46935 16.2746 0 
16 1 0.46 70.0 9.08845 16.2755 0 
263 1 0.46 70.0 9.49925 16.0911 0 
109 1 0.46 70.0 9.87609 16.3214 0 
124 1 0.46 70.0 10.3225 16.2906 0 
94 1 0.46 70.0 10.7741 16.2883 0 
52 1 0.46 70.0 11.2348 16.2483 0 
9 1 0.46 70.0 11.6528 16.0348 0 
170 1 0.46 70.0 12.0999 16.1347 0 
145 1 0.46 70.0 12.5254 16.2947 0 
297 1 0.46 70.0 12.9916 16.2171 0 
224 1 0.46 70.0 13.4815 16.1794 0 
87 1 0.46 70.0 14.008 16.1341 0 
127 1 0.46 70.0 14.6007 16.0329 0 
175 1 0.46 70.0 4.66537 16.6699 0 
75 1 0.46 70.0 5.29666 16.4518 0 
53 1 0.46 70.0 5.86123 16.4911 0 
236 1 0.46 70.0 6.38094 16.5334 0 
129 1 0.46 70.0 6.87751 16.5763 0 
40 1 0.46 70.0 7.35189 16.6295 0 
275 1 0.46 70.0 7.82531 16.6299 0 
12 1 0.46 70.0 8.27562 16.6762 0 
234 1 0.46 70.0 8.7316 16.6487 0 
13 1 0.46 70.0 9.17532 16.7086 0 
100 1 0.46 70.0 9.61413 16.6845 0 
32 1 0.46 70.0 10.0667 16.719 0 
98 1 0.46 70.0 10.5118 16.703 0 
243 1 0.46 70.0 10.9572 16.6972 0 
153 1 0.46 70.0 11.4012 16.6791 0 
68 1 0.46 70.0 11.7976 16.479 0 
217 1 0.46 70.0 12.2248 16.6356 0 
108 1 0.46 70.0 12.7925 16.6595 0 
288 1 0.46 70.0 13.271 16.6281 0 
23 1 0.46 70.0 13.7813 16.6056 0 
152 1 0.46 70.0 14.3281 16.5663 0 
122 1 0.46 70.0 14.9227 16.5242 0 
1 1 0.46 70.0 5.13204 16.9837 0 
147 1 0.46 70.0 5.65081 16.9707 0 
279 1 0.46 70.0 6.15159 16.9797 0 
252 1 0.46 70.0 6.65093 16.9868 0 
56 1 0.46 70.0 7.12618 17.0256 0 
22 1 0.46 70.0 7.59615 17.0356 0 
134 1 0.46 70.0 8.05103 17.0662 0 
212 1 0.46 70.0 8.50682 17.0694 0 
128 1 0.46 70.0 8.95238 17.0925 0 
210 1 0.46 70.0 9.40237 17.0982 0 
36 1 0.46 70.0 9.84396 17.1057 0 
58 1 0.46 70.0 10.2925 17.1063 0 
290 1 0.46 70.0 10.7368 17.0972 0 
79 1 0.46 70.0 11.185 17.0867 0 
91 1 0.46 70.0 11.635 17.0623 0 
273 1 0.46 70.0 12.079 17.0599 0 
155 1 0.46 70.0 12.5329 17.035 0 
97 1 0.46 70.0 13.0231 17.0521 0 
33 1 0.46 70.0 13.5195 17.0326 0 
42 1 0.46 70.0 14.0554 17.0295 0 
65 1 0.46 70.0 14.6133 17.023 0 
241 1 0.46 70.0 15.2334 17.0268 0 
268 1 0.46 70.0 4.75785 17.3831 0 
262 1 0.46 70.0 5.37736 17.4516 0 
44 1 0.46 70.0 5.89307 17.4341 0 
280 1 0.46 70.0 6.42204 17.3945 0 
223 1 0.46 70.0 6.90182 17.4225 0 
49 1 0.46 70.0 7.36962 17.4334 0 
3 1 0.46 70.0 7.82564 17.4557 0 
187 1 0.46 70.0 8.28044 17.4639 0 
96 1 0.46 70.0 8.72922 17.4792 0 
59 1 0.46 70.0 9.17778 17.489 0 
64 1 0.46 70.0 9.62287 17.4974 0 
60 1 0.46 70.0 10.0689 17.4993 0 
267 1 0.46 70.0 10.5156 17.496 0 
104 1 0.46 70.0 10.9614 17.4863 0 
82 1 0.46 70.0 11.4094 17.4747 0 
205 1 0.46 70.0 11.8578 17.4607 0 
88 1 0.46 70.0 12.3125 17.4496 0 
235 1 0.46 70.0 12.7697 17.4354 0 
74 1 0.46 70.0 13.257 17.443 0 
221 1 0.46 70.0 13.7615 17.4303 0 
182 1 0.46 70.0 14.3196 17.4624 0 
270 1 0.46 70.0 14.8957 17.4876 0 
8 1 0.46 70.0 15.545 17.5592 0 
167 1 0.46 70.0 4.44765 17.8544 0 
237 1 0.46 70.0 5.06758 17.8757 0 
47 1 0.46 70.0 5.61653 17.9017 0 
66 1 0.46 70.0 5.97646 18.1957 0 
31 1 0.46 70.0 6.19761 17.7957 0 
248 1 0.46 70.0 6.45208 18.2169 0 
206 1 0.46 70.0 6.67744 17.8196 0 
219 1 0.46 70.0 7.1434 17.829 0 
188 1 0.46 70.0 7.59991 17.8445 0 
93 1 0.46 70.0 8.05439 17.8537 0 
204 1 0.46 70.0 8.50485 17.8653 0 
228 1 0.46 70.0 8.95399 17.8763 0 
177 1 0.46 70.0 9.40017 17.8856 0 
148 1 0.46 70.0 9.84635 17.8904 0 
173 1 0.46 70.0 10.2924 17.8895 0 
203 1 0.46 70.0 10.7385 17.8832 0 
11 1 0.46 70.0 11.1861 17.8732 0 
284 1 0.46 70.0 11.6358 17.8619 0 
261 1 0.46 70.0 12.0878 17.8498 0 
200 1 0.46 70.0 12.5434 17.8395 0 
123 1 0.46 70.0 13.0021 17.8299 0 
176 1 0.46 70.0 13.489 17.8348 0 
208 1 0.46 70.0 13.9945 17.8272 0 
92 1 0.46 70.0 14.5808 17.9024 0 
180 1 0.46 70.0 15.1612 17.9758 0 
238 1 0.46 70.0 4.10398 18.3537 0 
209 1 0.46 70.0 4.768 18.3281 0 
43 1 0.46 70.0 5.31416 18.3474 0 
72 1 0.46 70.0 5.72765 18.5782 0 
20 1 0.46 70.0 6.21782 18.6108 0 
45 1 0.46 70.0 6.91687 18.223 0 
194 1 0.46 70.0 6.68741 18.615 0 
110 1 0.46 70.0 7.37389 18.2329 0 
165 1 0.46 70.0 7.14618 18.6213 0 
264 1 0.46 70.0 7.60259 18.629 0 
183 1 0.46 70.0 7.8289 18.2418 0 
289 1 0.46 70.0 8.05615 18.6371 0 
227 1 0.46 70.0 8.28095 18.2515 0 
192 1 0.46 70.0 8.50719 18.6456 0 
102 1 0.46 70.0 8.73083 18.2614 0 
57 1 0.46 70.0 9.17856 18.271 0 
113 1 0.46 70.0 8.95583 18.6544 0 
240 1 0.46 70.0 9.6242 18.2782 0 
139 1 0.46 70.0 9.40185 18.6629 0 
260 1 0.46 70.0 10.0701 18.2801 0 
63 1 0.46 70.0 10.5162 18.2763 0 
259 1 0.46 70.0 10.2936 18.6663 0 
156 1 0.46 70.0 10.9626 18.2681 0 
231 1 0.46 70.0 10.7391 18.6598 0 
255 1 0.46 70.0 11.4114 18.2583 0 
159 1 0.46 70.0 11.187 18.6514 0 
140 1 0.46 70.0 11.8627 18.2479 0 
283 1 0.46 70.0 11.6372 18.6424 0 
61 1 0.46 70.0 12.3165 18.2378 0 
144 1 0.46 70.0 12.0897 18.6336 0 
35 1 0.46 70.0 12.7735 18.229 0 
121 1 0.46 70.0 12.5446 18.6255 0 
5 1 0.46 70.0 13.2341 18.2231 0 
213 1 0.46 70.0 13.0023 18.619 0 
48 1 0.46 70.0 13.4666 18.6164 0 
207 1 0.46 70.0 13.7199 18.2279 0 
296 1 0.46 70.0 13.9492 18.6232 0 
4 1 0.46 70.0 14.2247 18.2247 0 
18 1 0.46 70.0 14.4448 18.628 0 
39 1 0.46 70.0 14.834 18.3584 0 
83 1 0.46 70.0 15.2794 18.6502 0 
103 1 0.46 70.0 15.6812 18.2246 0 
291 1 0.46 70.0 4.45577 18.7938 0 
244 1 0.46 70.0 5.01017 18.8059 0 
67 1 0.46 70.0 5.47043 18.9571 0 
86 1 0.46 70.0 5.97199 18.9982 0 
211 1 0.46 70.0 6.4545 19.0062 0 
251 1 0.46 70.0 6.91784 19.0105 0 
257 1 0.46 70.0 7.37539 19.0161 0 
178 1 0.46 70.0 7.83033 19.0226 0 
25 1 0.46 70.0 8.28269 19.0295 0 
111 1 0.46 70.0 8.73265 19.0367 0 
186 1 0.46 70.0 9.18037 19.0445 0 
112 1 0.46 70.0 9.62572 19.0514 0 
215 1 0.46 70.0 9.84774 18.6674 0 
14 1 0.46 70.0 10.0718 19.053 0 
131 1 0.46 70.0 10.5177 19.0492 0 
77 1 0.46 70.0 10.9637 19.0414 0 
55 1 0.46 70.0 11.4125 19.0338 0 
149 1 0.46 70.0 11.8636 19.0265 0 
202 1 0.46 70.0 12.317 19.0196 0 
172 1 0.46 70.0 12.773 19.0137 0 
168 1 0.46 70.0 13.2318 19.0094 0 
281 1 0.46 70.0 13.7014 19.0101 0 
247 1 0.46 70.0 14.1941 19.0119 0 
171 1 0.46 70.0 14.8091 18.9205 0 
298 1 0.46 70.0 15.9063 18.8199 0 
189 1 0.46 70.0 4.0461 19.2192 0 
245 1 0.46 70.0 4.69412 19.2677 0 
28 1 0.46 70.0 5.20123 19.3436 0 
150 1 0.46 70.0 5.71769 19.3813 0 
85 1 0.46 70.0 6.21433 19.3944 0 
99 1 0.46 70.0 6.68768 19.3997 0 
216 1 0.46 70.0 7.14697 19.4039 0 
266 1 0.46 70.0 7.6033 19.4086 0 
229 1 0.46 70.0 8.05696 19.4137 0 
90 1 0.46 70.0 8.50804 19.4191 0 
253 1 0.46 70.0 8.95663 19.425 0 
141 1 0.46 70.0 9.40264 19.4322 0 
73 1 0.46 70.0 9.84925 19.4359 0 
54 1 0.46 70.0 10.296 19.4351 0 
46 1 0.46 70.0 10.7414 19.4289 0 
37 1 0.46 70.0 11.1891 19.4224 0 
185 1 0.46 70.0 11.6388 19.4167 0 
106 1 0.46 70.0 12.0908 19.4113 0 
130 1 0.46 70.0 12.5451 19.4065 0 
162 1 0.46 70.0 13.0022 19.4025 0 
69 1 0.46 70.0 13.4637 19.4001 0 
230 1 0.46 70.0 13.9479 19.3982 0 
161 1 0.46 70.0 14.4845 19.3649 0 
38 1 0.46 70.0 14.9909 19.3565 0 
142 1 0.46 70.0 15.4673 19.1733 0 
2 1 0.46 70.0 4.36758 19.7052 0 
276 1 0.46 70.0 4.93108 19.7594 0 
220 1 0.46 70.0 5.46225 19.7739 0 
214 1 0.46 70.0 5.968 19.7803 0 
271 1 0.46 70.0 6.45103 19.7869 0 
17 1 0.46 70.0 6.91712 19.7923 0 
201 1 0.46 70.0 7.37502 19.7954 0 
19 1 0.46 70.0 7.83005 19.7988 0 
169 1 0.46 70.0 8.28244 19.8024 0 
10 1 0.46 70.0 8.73236 19.8061 0 
195 1 0.46 70.0 9.18006 19.8105 0 
218 1 0.46 70.0 9.6264 19.8152 0 
286 1 0.46 70.0 10.0743 19.8159 0 
27 1 0.46 70.0 10.522 19.8142 0 
287 1 0.46 70.0 10.9678 19.8084 0 
115 1 0.46 70.0 11.4157 19.8044 0 
70 1 0.46 70.0 11.8661 19.8008 0 
254 1 0.46 70.0 12.319 19.7973 0 
30 1 0.46 70.0 12.7745 19.7942 0 
164 1 0.46 70.0 13.2331 19.7916 0 
302 1 0.46 70.0 13.7059 19.7861 0 
137 1 0.46 70.0 14.2089 19.776 0 
126 1 0.46 70.0 14.7259 19.7741 0 
34 1 0.46 70.0 15.3044 19.7437 0 
278 1 0.46 70.0 15.8683 19.6058 0 
