# LAMMPS data file for rigid bodies

303 atoms

1 atom types

0.0 	 20.0 	 xlo xhi 
0.0 	 20.0 	 ylo yhi 
-1.0 	 1.0 	 zlo zhi 

Atoms

259 1 0.46 70.0 7.94506 13.7123 0 
240 1 0.46 70.0 9.01314 13.5251 0 
161 1 0.46 70.0 9.80316 13.5519 0 
120 1 0.46 70.0 10.62 13.5021 0 
84 1 0.46 70.0 11.4427 13.5906 0 
139 1 0.46 70.0 7.40225 14.1263 0 
96 1 0.46 70.0 8.51742 13.9081 0 
288 1 0.46 70.0 9.38108 13.9484 0 
154 1 0.46 70.0 10.2434 13.9307 0 
53 1 0.46 70.0 11.0105 13.9503 0 
171 1 0.46 70.0 11.9701 13.924 0 
189 1 0.46 70.0 12.4838 14.2075 0 
243 1 0.46 70.0 6.63439 14.3611 0 
235 1 0.46 70.0 7.61319 14.666 0 
91 1 0.46 70.0 8.02663 14.2851 0 
49 1 0.46 70.0 8.50077 14.5276 0 
213 1 0.46 70.0 8.94129 14.2434 0 
102 1 0.46 70.0 9.37979 14.5239 0 
62 1 0.46 70.0 9.81507 14.2426 0 
209 1 0.46 70.0 10.2155 14.5521 0 
294 1 0.46 70.0 10.6278 14.2865 0 
73 1 0.46 70.0 11.0728 14.55 0 
11 1 0.46 70.0 11.4963 14.2428 0 
277 1 0.46 70.0 11.9643 14.5344 0 
93 1 0.46 70.0 12.9847 14.528 0 
155 1 0.46 70.0 6.53894 14.9749 0 
216 1 0.46 70.0 7.09556 14.6795 0 
247 1 0.46 70.0 8.07651 14.849 0 
41 1 0.46 70.0 8.52578 15.0592 0 
283 1 0.46 70.0 8.95002 14.7892 0 
136 1 0.46 70.0 9.37996 15.0462 0 
203 1 0.46 70.0 9.79665 14.8 0 
94 1 0.46 70.0 10.2218 15.0639 0 
14 1 0.46 70.0 10.6451 14.8198 0 
4 1 0.46 70.0 11.0709 15.0755 0 
282 1 0.46 70.0 11.5111 14.8119 0 
274 1 0.46 70.0 11.9405 15.0879 0 
54 1 0.46 70.0 12.4356 14.7831 0 
167 1 0.46 70.0 13.4042 14.9405 0 
165 1 0.46 70.0 13.9817 14.8086 0 
148 1 0.46 70.0 6.08565 15.35 0 
33 1 0.46 70.0 6.65368 15.5327 0 
129 1 0.46 70.0 7.07574 15.1943 0 
232 1 0.46 70.0 7.5917 15.1965 0 
152 1 0.46 70.0 8.07702 15.3411 0 
202 1 0.46 70.0 8.54426 15.5388 0 
144 1 0.46 70.0 8.96385 15.293 0 
135 1 0.46 70.0 9.39074 15.53 0 
133 1 0.46 70.0 9.80239 15.2959 0 
86 1 0.46 70.0 10.2215 15.5431 0 
45 1 0.46 70.0 10.6411 15.3145 0 
81 1 0.46 70.0 11.4907 15.3249 0 
12 1 0.46 70.0 12.3854 15.2974 0 
3 1 0.46 70.0 12.8809 15.1136 0 
110 1 0.46 70.0 13.3207 15.4963 0 
122 1 0.46 70.0 13.8621 15.3758 0 
224 1 0.46 70.0 5.18838 15.8007 0 
242 1 0.46 70.0 5.77157 15.8342 0 
267 1 0.46 70.0 6.30271 15.9311 0 
158 1 0.46 70.0 7.18421 15.6736 0 
104 1 0.46 70.0 7.66689 15.6954 0 
250 1 0.46 70.0 8.13469 15.8044 0 
245 1 0.46 70.0 8.5937 15.9959 0 
297 1 0.46 70.0 8.99076 15.7639 0 
301 1 0.46 70.0 9.41642 15.9904 0 
257 1 0.46 70.0 9.81242 15.7627 0 
108 1 0.46 70.0 10.62 15.7853 0 
163 1 0.46 70.0 11.0484 15.5682 0 
16 1 0.46 70.0 11.4553 15.8018 0 
31 1 0.46 70.0 11.8982 15.6079 0 
47 1 0.46 70.0 12.3393 15.7631 0 
5 1 0.46 70.0 12.8208 15.6325 0 
280 1 0.46 70.0 13.7414 15.9049 0 
117 1 0.46 70.0 14.317 15.7367 0 
39 1 0.46 70.0 4.79421 16.4197 0 
17 1 0.46 70.0 5.44174 16.3358 0 
169 1 0.46 70.0 5.98021 16.3711 0 
89 1 0.46 70.0 6.47706 16.4382 0 
197 1 0.46 70.0 6.81137 16.0372 0 
228 1 0.46 70.0 7.29628 16.1425 0 
183 1 0.46 70.0 7.75538 16.1668 0 
215 1 0.46 70.0 8.20626 16.2554 0 
46 1 0.46 70.0 9.02889 16.2212 0 
71 1 0.46 70.0 9.80298 16.233 0 
262 1 0.46 70.0 10.2005 16.0068 0 
175 1 0.46 70.0 10.5889 16.2424 0 
193 1 0.46 70.0 11.0108 16.0384 0 
164 1 0.46 70.0 11.4136 16.2573 0 
179 1 0.46 70.0 11.8474 16.1044 0 
128 1 0.46 70.0 12.2912 16.2158 0 
168 1 0.46 70.0 12.751 16.1179 0 
138 1 0.46 70.0 13.2298 16.0074 0 
291 1 0.46 70.0 13.5938 16.4076 0 
134 1 0.46 70.0 14.1108 16.307 0 
130 1 0.46 70.0 14.6781 16.1961 0 
126 1 0.46 70.0 5.17771 16.83 0 
19 1 0.46 70.0 5.71716 16.8309 0 
176 1 0.46 70.0 6.21929 16.8666 0 
275 1 0.46 70.0 6.94329 16.5194 0 
7 1 0.46 70.0 7.39362 16.6019 0 
9 1 0.46 70.0 7.84575 16.6176 0 
137 1 0.46 70.0 8.28673 16.7003 0 
55 1 0.46 70.0 8.64265 16.4499 0 
166 1 0.46 70.0 9.02225 16.681 0 
276 1 0.46 70.0 9.41403 16.469 0 
278 1 0.46 70.0 9.80229 16.6924 0 
177 1 0.46 70.0 10.1899 16.4712 0 
249 1 0.46 70.0 10.5686 16.6984 0 
271 1 0.46 70.0 10.9641 16.4957 0 
272 1 0.46 70.0 11.348 16.7029 0 
180 1 0.46 70.0 11.7814 16.5863 0 
287 1 0.46 70.0 12.2236 16.66 0 
58 1 0.46 70.0 12.6716 16.5858 0 
285 1 0.46 70.0 13.1213 16.4959 0 
50 1 0.46 70.0 13.8778 16.8209 0 
64 1 0.46 70.0 14.4022 16.755 0 
147 1 0.46 70.0 14.9765 16.6843 0 
72 1 0.46 70.0 4.778 17.2065 0 
65 1 0.46 70.0 5.43698 17.2836 0 
265 1 0.46 70.0 5.96421 17.2932 0 
10 1 0.46 70.0 6.69287 16.9278 0 
67 1 0.46 70.0 7.14779 16.995 0 
292 1 0.46 70.0 7.60495 17.0289 0 
266 1 0.46 70.0 8.0557 17.0759 0 
48 1 0.46 70.0 8.51903 17.0805 0 
236 1 0.46 70.0 8.96186 17.1118 0 
185 1 0.46 70.0 9.38997 16.9803 0 
56 1 0.46 70.0 9.81002 17.1282 0 
273 1 0.46 70.0 10.2391 17.0171 0 
112 1 0.46 70.0 10.678 17.1165 0 
119 1 0.46 70.0 11.1171 17.0863 0 
241 1 0.46 70.0 11.5725 17.0818 0 
59 1 0.46 70.0 12.0173 17.0604 0 
88 1 0.46 70.0 12.4751 17.0398 0 
188 1 0.46 70.0 12.9297 16.9786 0 
286 1 0.46 70.0 13.3904 16.9002 0 
22 1 0.46 70.0 13.6403 17.3044 0 
252 1 0.46 70.0 14.1351 17.2428 0 
298 1 0.46 70.0 14.6751 17.2114 0 
78 1 0.46 70.0 15.2646 17.1741 0 
237 1 0.46 70.0 4.48417 17.6985 0 
66 1 0.46 70.0 5.117 17.6814 0 
29 1 0.46 70.0 5.70717 17.7107 0 
75 1 0.46 70.0 6.20712 17.7421 0 
207 1 0.46 70.0 6.44929 17.3357 0 
208 1 0.46 70.0 6.9108 17.3892 0 
142 1 0.46 70.0 7.36816 17.4226 0 
97 1 0.46 70.0 7.82133 17.4574 0 
149 1 0.46 70.0 8.27659 17.4704 0 
234 1 0.46 70.0 8.72232 17.4895 0 
293 1 0.46 70.0 9.16907 17.4991 0 
21 1 0.46 70.0 9.59697 17.5092 0 
151 1 0.46 70.0 10.0392 17.5063 0 
35 1 0.46 70.0 10.4689 17.5036 0 
303 1 0.46 70.0 10.9127 17.4963 0 
28 1 0.46 70.0 11.3551 17.4785 0 
201 1 0.46 70.0 11.8061 17.467 0 
79 1 0.46 70.0 12.259 17.4476 0 
218 1 0.46 70.0 12.7163 17.4257 0 
38 1 0.46 70.0 13.1725 17.372 0 
253 1 0.46 70.0 13.4079 17.7669 0 
82 1 0.46 70.0 13.8814 17.7104 0 
23 1 0.46 70.0 14.3857 17.6653 0 
37 1 0.46 70.0 14.9517 17.6739 0 
116 1 0.46 70.0 15.5605 17.6718 0 
57 1 0.46 70.0 4.84899 18.1346 0 
95 1 0.46 70.0 5.43642 18.1034 0 
153 1 0.46 70.0 5.96108 18.1428 0 
145 1 0.46 70.0 6.44152 18.1791 0 
27 1 0.46 70.0 6.67599 17.7841 0 
51 1 0.46 70.0 6.90076 18.2077 0 
284 1 0.46 70.0 7.13394 17.8154 0 
260 1 0.46 70.0 7.58864 17.8419 0 
132 1 0.46 70.0 8.04268 17.8568 0 
244 1 0.46 70.0 8.49188 17.873 0 
255 1 0.46 70.0 8.93889 17.8863 0 
8 1 0.46 70.0 9.38 17.9007 0 
100 1 0.46 70.0 9.81901 17.9025 0 
80 1 0.46 70.0 10.2564 17.9021 0 
111 1 0.46 70.0 10.6953 17.8932 0 
182 1 0.46 70.0 11.1401 17.8808 0 
263 1 0.46 70.0 11.5869 17.8658 0 
156 1 0.46 70.0 12.0389 17.8513 0 
233 1 0.46 70.0 12.4931 17.8357 0 
24 1 0.46 70.0 12.9507 17.8151 0 
141 1 0.46 70.0 13.1824 18.2062 0 
98 1 0.46 70.0 13.6412 18.163 0 
212 1 0.46 70.0 14.1201 18.1179 0 
40 1 0.46 70.0 14.6318 18.0868 0 
162 1 0.46 70.0 15.24 18.1501 0 
254 1 0.46 70.0 15.8824 18.1967 0 
248 1 0.46 70.0 4.18651 18.2293 0 
106 1 0.46 70.0 4.60034 18.6149 0 
264 1 0.46 70.0 5.19848 18.5207 0 
109 1 0.46 70.0 5.71593 18.5384 0 
219 1 0.46 70.0 6.20416 18.5726 0 
251 1 0.46 70.0 6.66846 18.6 0 
124 1 0.46 70.0 7.35711 18.2277 0 
20 1 0.46 70.0 7.12616 18.6145 0 
26 1 0.46 70.0 7.58182 18.6268 0 
230 1 0.46 70.0 7.81174 18.2418 0 
157 1 0.46 70.0 8.26324 18.2562 0 
76 1 0.46 70.0 8.03502 18.6391 0 
25 1 0.46 70.0 8.48596 18.6512 0 
178 1 0.46 70.0 8.71225 18.2697 0 
205 1 0.46 70.0 9.15791 18.2832 0 
103 1 0.46 70.0 8.93441 18.6632 0 
52 1 0.46 70.0 9.60137 18.295 0 
69 1 0.46 70.0 10.0384 18.296 0 
105 1 0.46 70.0 10.4763 18.2909 0 
246 1 0.46 70.0 10.9196 18.2769 0 
99 1 0.46 70.0 11.3666 18.2641 0 
18 1 0.46 70.0 11.1433 18.6579 0 
43 1 0.46 70.0 11.5928 18.6462 0 
223 1 0.46 70.0 11.8162 18.2502 0 
220 1 0.46 70.0 12.269 18.2369 0 
74 1 0.46 70.0 12.0443 18.6344 0 
121 1 0.46 70.0 12.7243 18.2239 0 
296 1 0.46 70.0 12.4982 18.6231 0 
173 1 0.46 70.0 12.9545 18.6122 0 
61 1 0.46 70.0 13.4133 18.5985 0 
2 1 0.46 70.0 13.8744 18.5608 0 
68 1 0.46 70.0 14.3576 18.5289 0 
206 1 0.46 70.0 14.8718 18.5069 0 
174 1 0.46 70.0 15.5418 18.6468 0 
191 1 0.46 70.0 4.1156 18.916 0 
270 1 0.46 70.0 4.97767 18.9513 0 
36 1 0.46 70.0 5.48458 18.9503 0 
200 1 0.46 70.0 5.96997 18.9682 0 
194 1 0.46 70.0 6.43645 18.9928 0 
1 1 0.46 70.0 6.89527 19.0027 0 
125 1 0.46 70.0 7.35201 19.0126 0 
159 1 0.46 70.0 7.80659 19.0225 0 
302 1 0.46 70.0 8.2592 19.0324 0 
268 1 0.46 70.0 8.71013 19.042 0 
77 1 0.46 70.0 9.16042 19.0511 0 
114 1 0.46 70.0 9.38056 18.6747 0 
281 1 0.46 70.0 9.61294 19.0579 0 
227 1 0.46 70.0 9.82647 18.6911 0 
6 1 0.46 70.0 10.2517 18.6884 0 
127 1 0.46 70.0 10.465 19.055 0 
190 1 0.46 70.0 10.6963 18.6698 0 
85 1 0.46 70.0 10.9176 19.0469 0 
199 1 0.46 70.0 11.3681 19.0378 0 
44 1 0.46 70.0 11.8195 19.0285 0 
229 1 0.46 70.0 12.2725 19.0192 0 
101 1 0.46 70.0 12.7276 19.0102 0 
170 1 0.46 70.0 13.1851 19.0014 0 
198 1 0.46 70.0 13.6448 18.992 0 
123 1 0.46 70.0 14.1115 18.9627 0 
295 1 0.46 70.0 14.6006 18.9455 0 
196 1 0.46 70.0 15.1138 18.9256 0 
210 1 0.46 70.0 15.9842 19.0553 0 
146 1 0.46 70.0 3.91003 19.5038 0 
63 1 0.46 70.0 4.59504 19.2595 0 
225 1 0.46 70.0 5.21931 19.3658 0 
289 1 0.46 70.0 5.72614 19.3698 0 
269 1 0.46 70.0 6.20254 19.386 0 
290 1 0.46 70.0 6.6639 19.3926 0 
181 1 0.46 70.0 7.12181 19.3999 0 
231 1 0.46 70.0 7.57752 19.4073 0 
238 1 0.46 70.0 8.03116 19.4146 0 
204 1 0.46 70.0 8.4828 19.4217 0 
34 1 0.46 70.0 8.93248 19.4284 0 
160 1 0.46 70.0 9.38 19.4335 0 
118 1 0.46 70.0 9.82655 19.4249 0 
143 1 0.46 70.0 10.2516 19.4234 0 
214 1 0.46 70.0 10.6975 19.4302 0 
211 1 0.46 70.0 11.1456 19.4252 0 
195 1 0.46 70.0 11.5956 19.4187 0 
15 1 0.46 70.0 12.0475 19.412 0 
90 1 0.46 70.0 12.5014 19.4052 0 
222 1 0.46 70.0 12.9577 19.3985 0 
32 1 0.46 70.0 13.4162 19.3919 0 
107 1 0.46 70.0 13.8818 19.3847 0 
172 1 0.46 70.0 14.3628 19.3683 0 
83 1 0.46 70.0 14.8769 19.3629 0 
226 1 0.46 70.0 15.4536 19.2954 0 
70 1 0.46 70.0 4.4163 19.7348 0 
261 1 0.46 70.0 4.94348 19.7547 0 
221 1 0.46 70.0 5.47687 19.7751 0 
115 1 0.46 70.0 5.96531 19.7791 0 
184 1 0.46 70.0 6.43231 19.7845 0 
239 1 0.46 70.0 6.89125 19.7893 0 
192 1 0.46 70.0 7.34804 19.794 0 
258 1 0.46 70.0 7.80273 19.7987 0 
42 1 0.46 70.0 8.25538 19.8033 0 
113 1 0.46 70.0 8.70598 19.8077 0 
186 1 0.46 70.0 9.15435 19.8116 0 
13 1 0.46 70.0 9.59974 19.8124 0 
279 1 0.46 70.0 10.0398 19.8133 0 
300 1 0.46 70.0 10.4795 19.8111 0 
87 1 0.46 70.0 10.9243 19.8096 0 
299 1 0.46 70.0 11.3725 19.8058 0 
256 1 0.46 70.0 11.8231 19.8016 0 
187 1 0.46 70.0 12.276 19.7972 0 
30 1 0.46 70.0 12.731 19.7929 0 
217 1 0.46 70.0 13.1885 19.7885 0 
150 1 0.46 70.0 13.6484 19.7839 0 
60 1 0.46 70.0 14.1215 19.778 0 
140 1 0.46 70.0 14.622 19.7742 0 
131 1 0.46 70.0 15.1832 19.7569 0 
92 1 0.46 70.0 15.8155 19.6909 0 
