# LAMMPS data file for rigid bodies

303 atoms

1 atom types

0.0 	 20.0 	 xlo xhi 
0.0 	 20.0 	 ylo yhi 
-1.0 	 1.0 	 zlo zhi 

Atoms

114 1 0.46 70.0 9.97013 13.2957 0 
24 1 0.46 70.0 8.73064 13.5192 0 
47 1 0.46 70.0 9.39174 13.4655 0 
97 1 0.46 70.0 10.3279 13.7367 0 
184 1 0.46 70.0 10.737 13.3434 0 
110 1 0.46 70.0 11.2602 13.6561 0 
233 1 0.46 70.0 6.68635 14.2124 0 
87 1 0.46 70.0 7.29437 13.8414 0 
21 1 0.46 70.0 7.75521 14.1717 0 
148 1 0.46 70.0 8.182 13.7922 0 
158 1 0.46 70.0 8.62716 14.1584 0 
33 1 0.46 70.0 9.11842 13.9395 0 
248 1 0.46 70.0 9.82341 13.921 0 
35 1 0.46 70.0 10.793 13.9984 0 
143 1 0.46 70.0 11.7502 13.946 0 
28 1 0.46 70.0 12.5734 13.9992 0 
298 1 0.46 70.0 7.2452 14.4609 0 
206 1 0.46 70.0 8.19827 14.4564 0 
144 1 0.46 70.0 9.03281 14.5009 0 
86 1 0.46 70.0 9.48188 14.2873 0 
195 1 0.46 70.0 9.89878 14.5402 0 
138 1 0.46 70.0 10.3114 14.2685 0 
94 1 0.46 70.0 10.7556 14.5379 0 
84 1 0.46 70.0 11.2412 14.2668 0 
152 1 0.46 70.0 11.6438 14.575 0 
180 1 0.46 70.0 12.1232 14.3404 0 
82 1 0.46 70.0 12.5853 14.6407 0 
39 1 0.46 70.0 13.1116 14.3965 0 
129 1 0.46 70.0 6.19858 14.9989 0 
190 1 0.46 70.0 6.73884 14.7804 0 
6 1 0.46 70.0 7.28163 15.001 0 
292 1 0.46 70.0 7.7359 14.7286 0 
237 1 0.46 70.0 8.17641 14.9954 0 
301 1 0.46 70.0 8.61061 14.7474 0 
71 1 0.46 70.0 9.02801 15.0198 0 
42 1 0.46 70.0 9.45582 14.7937 0 
267 1 0.46 70.0 9.87467 15.0436 0 
204 1 0.46 70.0 10.3172 14.8005 0 
34 1 0.46 70.0 10.7227 15.056 0 
92 1 0.46 70.0 11.1717 14.8113 0 
4 1 0.46 70.0 11.5881 15.0882 0 
2 1 0.46 70.0 12.0754 14.8741 0 
270 1 0.46 70.0 13.0288 14.9949 0 
76 1 0.46 70.0 13.5875 14.81 0 
223 1 0.46 70.0 5.64399 15.3043 0 
150 1 0.46 70.0 6.39467 15.5268 0 
221 1 0.46 70.0 6.84524 15.2905 0 
268 1 0.46 70.0 7.31045 15.5195 0 
272 1 0.46 70.0 7.74143 15.2505 0 
3 1 0.46 70.0 8.17908 15.4935 0 
55 1 0.46 70.0 8.60258 15.2543 0 
72 1 0.46 70.0 9.01658 15.5027 0 
59 1 0.46 70.0 9.43934 15.2785 0 
211 1 0.46 70.0 9.84262 15.5191 0 
191 1 0.46 70.0 10.2803 15.291 0 
203 1 0.46 70.0 10.6754 15.5361 0 
111 1 0.46 70.0 11.1258 15.3109 0 
157 1 0.46 70.0 12.0072 15.3634 0 
300 1 0.46 70.0 12.5094 15.1696 0 
122 1 0.46 70.0 12.9235 15.5167 0 
282 1 0.46 70.0 13.4465 15.3857 0 
109 1 0.46 70.0 14.0283 15.2369 0 
146 1 0.46 70.0 5.41641 15.9644 0 
165 1 0.46 70.0 5.94389 15.777 0 
226 1 0.46 70.0 6.87193 15.8016 0 
222 1 0.46 70.0 7.75634 15.742 0 
201 1 0.46 70.0 8.18763 15.9661 0 
40 1 0.46 70.0 8.60067 15.7329 0 
139 1 0.46 70.0 9.00647 15.9661 0 
78 1 0.46 70.0 9.41693 15.7433 0 
274 1 0.46 70.0 9.81193 15.9776 0 
38 1 0.46 70.0 10.2369 15.7556 0 
202 1 0.46 70.0 10.6288 15.9934 0 
230 1 0.46 70.0 11.0695 15.7782 0 
189 1 0.46 70.0 11.5287 15.5675 0 
100 1 0.46 70.0 11.9319 15.8255 0 
48 1 0.46 70.0 12.4213 15.6528 0 
102 1 0.46 70.0 12.8145 15.9981 0 
73 1 0.46 70.0 13.313 15.9058 0 
45 1 0.46 70.0 13.8413 15.787 0 
199 1 0.46 70.0 14.4596 15.6773 0 
291 1 0.46 70.0 4.9206 16.3157 0 
124 1 0.46 70.0 5.95582 16.2927 0 
9 1 0.46 70.0 6.43063 16.0634 0 
244 1 0.46 70.0 6.9006 16.2925 0 
12 1 0.46 70.0 7.32922 16.0055 0 
134 1 0.46 70.0 7.77277 16.2072 0 
166 1 0.46 70.0 8.1955 16.425 0 
168 1 0.46 70.0 8.60104 16.1929 0 
7 1 0.46 70.0 8.99815 16.424 0 
133 1 0.46 70.0 9.40047 16.2013 0 
271 1 0.46 70.0 9.79465 16.4338 0 
163 1 0.46 70.0 10.2051 16.2124 0 
175 1 0.46 70.0 11.0193 16.2336 0 
85 1 0.46 70.0 11.463 16.0227 0 
177 1 0.46 70.0 11.8546 16.2768 0 
75 1 0.46 70.0 12.3276 16.1068 0 
216 1 0.46 70.0 13.1867 16.3927 0 
218 1 0.46 70.0 13.6862 16.3014 0 
125 1 0.46 70.0 14.2214 16.1909 0 
296 1 0.46 70.0 14.9165 16.1403 0 
213 1 0.46 70.0 5.46764 16.5481 0 
186 1 0.46 70.0 6.01256 16.777 0 
126 1 0.46 70.0 6.4685 16.5599 0 
294 1 0.46 70.0 6.93281 16.766 0 
284 1 0.46 70.0 7.35348 16.4674 0 
227 1 0.46 70.0 7.78681 16.6647 0 
192 1 0.46 70.0 8.19564 16.8811 0 
108 1 0.46 70.0 8.59666 16.6501 0 
15 1 0.46 70.0 8.9931 16.8786 0 
20 1 0.46 70.0 9.39249 16.6561 0 
273 1 0.46 70.0 9.78484 16.8871 0 
173 1 0.46 70.0 10.1869 16.6669 0 
250 1 0.46 70.0 10.5962 16.4484 0 
289 1 0.46 70.0 10.984 16.6873 0 
43 1 0.46 70.0 11.4087 16.4762 0 
113 1 0.46 70.0 11.7939 16.7275 0 
57 1 0.46 70.0 12.2415 16.5552 0 
281 1 0.46 70.0 12.7068 16.4514 0 
172 1 0.46 70.0 13.0827 16.8569 0 
44 1 0.46 70.0 13.5596 16.7882 0 
260 1 0.46 70.0 14.0605 16.7007 0 
107 1 0.46 70.0 14.5947 16.5939 0 
209 1 0.46 70.0 4.90237 16.9008 0 
120 1 0.46 70.0 5.54904 17.0549 0 
249 1 0.46 70.0 6.06471 17.2411 0 
280 1 0.46 70.0 6.51035 17.0404 0 
14 1 0.46 70.0 6.9564 17.2299 0 
183 1 0.46 70.0 7.3748 16.924 0 
77 1 0.46 70.0 7.79422 17.1196 0 
90 1 0.46 70.0 8.59536 17.1045 0 
240 1 0.46 70.0 8.99142 17.3303 0 
187 1 0.46 70.0 9.38626 17.1084 0 
127 1 0.46 70.0 10.1736 17.1192 0 
290 1 0.46 70.0 10.576 16.9013 0 
293 1 0.46 70.0 10.9604 17.1385 0 
25 1 0.46 70.0 11.3712 16.9282 0 
104 1 0.46 70.0 11.7555 17.1776 0 
131 1 0.46 70.0 12.1794 17.0033 0 
54 1 0.46 70.0 12.6253 16.9011 0 
156 1 0.46 70.0 13.0447 17.3142 0 
224 1 0.46 70.0 13.5012 17.2574 0 
265 1 0.46 70.0 13.9817 17.1871 0 
135 1 0.46 70.0 14.4964 17.1018 0 
5 1 0.46 70.0 15.0798 16.9074 0 
160 1 0.46 70.0 4.5792 17.6342 0 
178 1 0.46 70.0 5.11362 17.3863 0 
74 1 0.46 70.0 5.62978 17.5518 0 
32 1 0.46 70.0 6.11487 17.6966 0 
63 1 0.46 70.0 6.54629 17.5161 0 
101 1 0.46 70.0 6.97257 17.6895 0 
269 1 0.46 70.0 7.39028 17.3778 0 
263 1 0.46 70.0 7.80537 17.5719 0 
225 1 0.46 70.0 8.1992 17.3349 0 
185 1 0.46 70.0 8.59896 17.5558 0 
56 1 0.46 70.0 9.38232 17.5592 0 
50 1 0.46 70.0 9.77592 17.3385 0 
276 1 0.46 70.0 10.161 17.5706 0 
23 1 0.46 70.0 10.5573 17.3524 0 
155 1 0.46 70.0 10.9349 17.5884 0 
159 1 0.46 70.0 11.3421 17.3769 0 
219 1 0.46 70.0 11.7219 17.623 0 
91 1 0.46 70.0 12.1451 17.4498 0 
215 1 0.46 70.0 12.5898 17.3534 0 
26 1 0.46 70.0 12.9868 17.767 0 
13 1 0.46 70.0 13.4407 17.7146 0 
153 1 0.46 70.0 13.9022 17.6586 0 
179 1 0.46 70.0 14.3919 17.594 0 
140 1 0.46 70.0 14.9205 17.4801 0 
121 1 0.46 70.0 15.5054 17.3778 0 
115 1 0.46 70.0 4.70669 18.2159 0 
220 1 0.46 70.0 5.16086 17.8932 0 
8 1 0.46 70.0 5.66537 18.0315 0 
142 1 0.46 70.0 6.13608 18.1497 0 
275 1 0.46 70.0 6.56977 18.0004 0 
181 1 0.46 70.0 7.00261 18.1468 0 
182 1 0.46 70.0 7.40703 17.8281 0 
254 1 0.46 70.0 7.82072 18.0214 0 
105 1 0.46 70.0 8.20906 17.7857 0 
174 1 0.46 70.0 8.60751 18.0053 0 
247 1 0.46 70.0 8.99327 17.78 0 
99 1 0.46 70.0 9.76855 17.7884 0 
58 1 0.46 70.0 9.38022 18.0094 0 
239 1 0.46 70.0 10.1502 18.0213 0 
27 1 0.46 70.0 10.5415 17.8032 0 
41 1 0.46 70.0 10.9163 18.044 0 
228 1 0.46 70.0 11.3066 17.8207 0 
255 1 0.46 70.0 11.6671 18.061 0 
171 1 0.46 70.0 12.0921 17.8909 0 
259 1 0.46 70.0 12.5352 17.8019 0 
51 1 0.46 70.0 12.865 18.2069 0 
66 1 0.46 70.0 13.3155 18.1586 0 
205 1 0.46 70.0 13.7717 18.1162 0 
88 1 0.46 70.0 14.2464 18.066 0 
18 1 0.46 70.0 14.7625 17.9995 0 
170 1 0.46 70.0 15.3253 17.9388 0 
132 1 0.46 70.0 4.32677 18.6396 0 
70 1 0.46 70.0 5.24819 18.3933 0 
252 1 0.46 70.0 5.73399 18.5043 0 
69 1 0.46 70.0 6.18921 18.5954 0 
246 1 0.46 70.0 6.63512 18.4948 0 
285 1 0.46 70.0 7.07953 18.5973 0 
128 1 0.46 70.0 7.4388 18.2747 0 
149 1 0.46 70.0 7.85489 18.4659 0 
81 1 0.46 70.0 8.22612 18.2336 0 
11 1 0.46 70.0 8.61206 18.4565 0 
31 1 0.46 70.0 8.99658 18.2287 0 
232 1 0.46 70.0 9.76331 18.2361 0 
266 1 0.46 70.0 9.38301 18.4598 0 
278 1 0.46 70.0 10.1393 18.4729 0 
89 1 0.46 70.0 10.5277 18.2504 0 
241 1 0.46 70.0 10.8976 18.5028 0 
17 1 0.46 70.0 11.2917 18.2719 0 
245 1 0.46 70.0 11.9887 18.3188 0 
112 1 0.46 70.0 11.7187 18.6538 0 
93 1 0.46 70.0 12.4195 18.2387 0 
299 1 0.46 70.0 12.6644 18.6209 0 
60 1 0.46 70.0 13.1176 18.5913 0 
302 1 0.46 70.0 13.5743 18.5577 0 
208 1 0.46 70.0 14.0446 18.5215 0 
49 1 0.46 70.0 14.5448 18.4735 0 
118 1 0.46 70.0 15.0918 18.4439 0 
235 1 0.46 70.0 15.7165 18.408 0 
251 1 0.46 70.0 4.8969 18.7757 0 
61 1 0.46 70.0 5.41478 18.8882 0 
256 1 0.46 70.0 5.90248 18.9674 0 
95 1 0.46 70.0 6.38279 18.9995 0 
106 1 0.46 70.0 6.83339 18.9804 0 
64 1 0.46 70.0 7.51396 18.7127 0 
279 1 0.46 70.0 7.27831 19.0584 0 
52 1 0.46 70.0 7.82437 19.031 0 
29 1 0.46 70.0 8.22742 18.6895 0 
283 1 0.46 70.0 8.62497 18.9033 0 
234 1 0.46 70.0 9.0019 18.6714 0 
258 1 0.46 70.0 9.00166 19.1092 0 
193 1 0.46 70.0 9.37994 18.9104 0 
16 1 0.46 70.0 9.76789 18.6816 0 
154 1 0.46 70.0 9.75727 19.1006 0 
36 1 0.46 70.0 10.1829 19.0035 0 
188 1 0.46 70.0 10.505 18.6876 0 
164 1 0.46 70.0 10.6257 19.0754 0 
288 1 0.46 70.0 11.0559 19.0505 0 
151 1 0.46 70.0 11.2843 18.6928 0 
207 1 0.46 70.0 11.5156 19.0556 0 
79 1 0.46 70.0 11.9661 19.0342 0 
116 1 0.46 70.0 12.2179 18.6695 0 
161 1 0.46 70.0 12.4447 19.0358 0 
196 1 0.46 70.0 12.898 19.0077 0 
264 1 0.46 70.0 13.355 18.984 0 
262 1 0.46 70.0 13.8188 18.9575 0 
117 1 0.46 70.0 14.3066 18.9269 0 
217 1 0.46 70.0 14.8229 18.8954 0 
10 1 0.46 70.0 15.4192 18.9044 0 
194 1 0.46 70.0 4.01522 19.1692 0 
197 1 0.46 70.0 4.60596 19.2189 0 
253 1 0.46 70.0 5.13362 19.2978 0 
198 1 0.46 70.0 5.636 19.3558 0 
137 1 0.46 70.0 6.13108 19.3838 0 
19 1 0.46 70.0 6.60796 19.3938 0 
37 1 0.46 70.0 7.0599 19.4274 0 
145 1 0.46 70.0 7.55929 19.4068 0 
141 1 0.46 70.0 8.26036 19.1236 0 
46 1 0.46 70.0 8.00725 19.4539 0 
103 1 0.46 70.0 8.6025 19.3955 0 
277 1 0.46 70.0 9.03571 19.5103 0 
212 1 0.46 70.0 9.47122 19.425 0 
123 1 0.46 70.0 9.96405 19.4497 0 
295 1 0.46 70.0 10.3941 19.4351 0 
210 1 0.46 70.0 10.8462 19.4437 0 
65 1 0.46 70.0 11.2925 19.432 0 
67 1 0.46 70.0 11.7496 19.4271 0 
136 1 0.46 70.0 12.205 19.4146 0 
53 1 0.46 70.0 12.6747 19.4111 0 
176 1 0.46 70.0 13.1319 19.3948 0 
214 1 0.46 70.0 13.591 19.3781 0 
169 1 0.46 70.0 14.0654 19.3596 0 
96 1 0.46 70.0 14.5626 19.3436 0 
242 1 0.46 70.0 15.0943 19.3235 0 
200 1 0.46 70.0 15.8241 19.3362 0 
303 1 0.46 70.0 4.30608 19.6937 0 
257 1 0.46 70.0 4.8649 19.7356 0 
1 1 0.46 70.0 5.38514 19.7702 0 
297 1 0.46 70.0 5.88494 19.7762 0 
229 1 0.46 70.0 6.36313 19.7813 0 
238 1 0.46 70.0 6.82218 19.7986 0 
147 1 0.46 70.0 7.31801 19.793 0 
68 1 0.46 70.0 7.77233 19.8108 0 
30 1 0.46 70.0 8.29883 19.7864 0 
130 1 0.46 70.0 8.7452 19.819 0 
167 1 0.46 70.0 9.29041 19.8323 0 
286 1 0.46 70.0 9.72513 19.8071 0 
243 1 0.46 70.0 10.1764 19.8234 0 
162 1 0.46 70.0 10.62 19.8154 0 
62 1 0.46 70.0 11.0725 19.8158 0 
236 1 0.46 70.0 11.5252 19.8088 0 
80 1 0.46 70.0 11.9821 19.8041 0 
287 1 0.46 70.0 12.4399 19.7967 0 
119 1 0.46 70.0 12.9057 19.7933 0 
22 1 0.46 70.0 13.3649 19.7847 0 
231 1 0.46 70.0 13.8264 19.7772 0 
83 1 0.46 70.0 14.3099 19.7732 0 
261 1 0.46 70.0 14.8276 19.7672 0 
98 1 0.46 70.0 15.4093 19.7281 0 
