# LAMMPS data file for rigid bodies

303 atoms

1 atom types

0.0 	 20.0 	 xlo xhi 
0.0 	 20.0 	 ylo yhi 
-1.0 	 1.0 	 zlo zhi 

Atoms

200 1 0.46 70.0 10.3929 13.3314 0 
154 1 0.46 70.0 8.46104 13.6534 0 
136 1 0.46 70.0 9.0929 13.4435 0 
157 1 0.46 70.0 9.82405 13.5746 0 
234 1 0.46 70.0 10.9153 13.6332 0 
121 1 0.46 70.0 7.23235 14.1232 0 
10 1 0.46 70.0 7.85051 13.8713 0 
263 1 0.46 70.0 8.85182 14.0715 0 
222 1 0.46 70.0 9.38 13.9244 0 
189 1 0.46 70.0 9.84002 14.1769 0 
57 1 0.46 70.0 10.3474 13.915 0 
203 1 0.46 70.0 10.8492 14.2117 0 
182 1 0.46 70.0 11.3614 13.9922 0 
158 1 0.46 70.0 11.8908 13.8317 0 
36 1 0.46 70.0 12.4923 13.8329 0 
29 1 0.46 70.0 7.7694 14.4542 0 
118 1 0.46 70.0 8.3068 14.2459 0 
143 1 0.46 70.0 8.71719 14.5907 0 
56 1 0.46 70.0 9.26293 14.432 0 
229 1 0.46 70.0 9.94333 14.6531 0 
28 1 0.46 70.0 10.3859 14.4382 0 
237 1 0.46 70.0 11.2934 14.528 0 
43 1 0.46 70.0 11.8146 14.4122 0 
163 1 0.46 70.0 12.3603 14.3876 0 
277 1 0.46 70.0 12.9648 14.2723 0 
67 1 0.46 70.0 6.70769 14.8255 0 
297 1 0.46 70.0 7.25088 14.6888 0 
16 1 0.46 70.0 7.70057 14.9977 0 
18 1 0.46 70.0 8.20056 14.781 0 
17 1 0.46 70.0 8.58392 15.104 0 
254 1 0.46 70.0 9.05053 14.9507 0 
117 1 0.46 70.0 9.51209 14.8349 0 
209 1 0.46 70.0 10.3448 14.9516 0 
249 1 0.46 70.0 10.8018 14.7511 0 
142 1 0.46 70.0 11.219 15.0135 0 
62 1 0.46 70.0 11.7136 14.9236 0 
61 1 0.46 70.0 12.2253 14.89 0 
218 1 0.46 70.0 12.7747 14.8151 0 
129 1 0.46 70.0 13.3805 14.7176 0 
125 1 0.46 70.0 5.65506 15.4616 0 
84 1 0.46 70.0 6.19097 15.1179 0 
166 1 0.46 70.0 6.70276 15.4213 0 
201 1 0.46 70.0 7.19594 15.2184 0 
112 1 0.46 70.0 7.63602 15.5085 0 
174 1 0.46 70.0 8.11002 15.295 0 
156 1 0.46 70.0 8.96063 15.4357 0 
81 1 0.46 70.0 9.40555 15.3034 0 
53 1 0.46 70.0 9.88328 15.1462 0 
250 1 0.46 70.0 10.258 15.4264 0 
72 1 0.46 70.0 10.72 15.2575 0 
221 1 0.46 70.0 11.131 15.4635 0 
148 1 0.46 70.0 11.6034 15.3999 0 
302 1 0.46 70.0 12.0861 15.3629 0 
167 1 0.46 70.0 12.5974 15.3078 0 
184 1 0.46 70.0 13.1423 15.2451 0 
89 1 0.46 70.0 13.7493 15.172 0 
33 1 0.46 70.0 6.20982 15.7069 0 
114 1 0.46 70.0 6.6926 15.9534 0 
5 1 0.46 70.0 7.16631 15.7329 0 
299 1 0.46 70.0 8.05078 15.7819 0 
75 1 0.46 70.0 8.50635 15.5832 0 
64 1 0.46 70.0 8.89318 15.8908 0 
107 1 0.46 70.0 9.33277 15.7719 0 
242 1 0.46 70.0 9.7672 15.5943 0 
233 1 0.46 70.0 10.1327 15.8673 0 
268 1 0.46 70.0 10.6093 15.7301 0 
227 1 0.46 70.0 11.0296 15.9037 0 
281 1 0.46 70.0 11.4851 15.8517 0 
190 1 0.46 70.0 11.9435 15.8183 0 
116 1 0.46 70.0 12.4195 15.7728 0 
170 1 0.46 70.0 12.9181 15.7321 0 
267 1 0.46 70.0 13.4345 15.6981 0 
49 1 0.46 70.0 13.9668 15.6848 0 
55 1 0.46 70.0 14.5231 15.5781 0 
87 1 0.46 70.0 5.21567 16.3634 0 
65 1 0.46 70.0 5.70677 16.0364 0 
207 1 0.46 70.0 6.22128 16.2447 0 
213 1 0.46 70.0 7.13381 16.2274 0 
141 1 0.46 70.0 7.59848 15.9999 0 
69 1 0.46 70.0 8.01517 16.2484 0 
252 1 0.46 70.0 8.4577 16.0402 0 
92 1 0.46 70.0 8.84986 16.342 0 
76 1 0.46 70.0 9.29182 16.2473 0 
205 1 0.46 70.0 9.69336 16.0526 0 
113 1 0.46 70.0 10.0484 16.3172 0 
41 1 0.46 70.0 10.4717 16.1704 0 
289 1 0.46 70.0 10.8823 16.3235 0 
44 1 0.46 70.0 11.3321 16.2845 0 
6 1 0.46 70.0 11.7862 16.2573 0 
198 1 0.46 70.0 12.2434 16.2219 0 
45 1 0.46 70.0 12.7133 16.1869 0 
179 1 0.46 70.0 13.2094 16.1729 0 
298 1 0.46 70.0 13.7188 16.1719 0 
210 1 0.46 70.0 14.2641 16.1561 0 
197 1 0.46 70.0 14.8561 16.1408 0 
187 1 0.46 70.0 4.80189 16.8298 0 
199 1 0.46 70.0 5.7623 16.5844 0 
146 1 0.46 70.0 6.25447 16.7554 0 
102 1 0.46 70.0 6.69214 16.4545 0 
188 1 0.46 70.0 7.1291 16.7238 0 
23 1 0.46 70.0 7.54298 16.466 0 
124 1 0.46 70.0 7.93642 16.6987 0 
24 1 0.46 70.0 8.41635 16.4931 0 
287 1 0.46 70.0 8.79628 16.7853 0 
279 1 0.46 70.0 9.26663 16.6965 0 
165 1 0.46 70.0 9.72053 16.6376 0 
128 1 0.46 70.0 10.1963 16.7274 0 
21 1 0.46 70.0 10.6439 16.6982 0 
219 1 0.46 70.0 11.1184 16.6989 0 
181 1 0.46 70.0 11.5724 16.6743 0 
248 1 0.46 70.0 12.0295 16.6521 0 
256 1 0.46 70.0 12.4896 16.6252 0 
275 1 0.46 70.0 12.9669 16.6005 0 
262 1 0.46 70.0 13.4797 16.6218 0 
175 1 0.46 70.0 13.9945 16.6313 0 
14 1 0.46 70.0 14.5391 16.636 0 
206 1 0.46 70.0 15.1726 16.6865 0 
42 1 0.46 70.0 5.35071 16.9675 0 
290 1 0.46 70.0 5.84269 17.1116 0 
139 1 0.46 70.0 6.29442 17.2484 0 
226 1 0.46 70.0 6.71707 16.9288 0 
100 1 0.46 70.0 7.15626 17.2342 0 
3 1 0.46 70.0 7.53042 16.9464 0 
99 1 0.46 70.0 7.93529 17.1585 0 
239 1 0.46 70.0 8.32385 16.9317 0 
303 1 0.46 70.0 8.65874 17.2121 0 
135 1 0.46 70.0 9.10797 17.1178 0 
286 1 0.46 70.0 9.55613 17.0694 0 
58 1 0.46 70.0 9.9995 17.1188 0 
204 1 0.46 70.0 10.4514 17.1056 0 
70 1 0.46 70.0 10.9006 17.0913 0 
20 1 0.46 70.0 11.3566 17.0802 0 
238 1 0.46 70.0 11.8105 17.0624 0 
37 1 0.46 70.0 12.2667 17.0446 0 
140 1 0.46 70.0 12.7261 17.0235 0 
77 1 0.46 70.0 13.2048 17.0058 0 
202 1 0.46 70.0 13.7504 17.0727 0 
176 1 0.46 70.0 14.2575 17.0989 0 
278 1 0.46 70.0 14.8003 17.1096 0 
159 1 0.46 70.0 15.5318 17.2344 0 
54 1 0.46 70.0 4.48239 17.3606 0 
39 1 0.46 70.0 5.05012 17.4332 0 
194 1 0.46 70.0 5.55909 17.5326 0 
276 1 0.46 70.0 6.03231 17.6489 0 
31 1 0.46 70.0 6.48177 17.7668 0 
73 1 0.46 70.0 6.73037 17.3851 0 
191 1 0.46 70.0 7.57117 17.4128 0 
80 1 0.46 70.0 7.85603 17.7689 0 
264 1 0.46 70.0 8.27914 17.442 0 
274 1 0.46 70.0 8.9384 17.5288 0 
162 1 0.46 70.0 9.37566 17.4909 0 
284 1 0.46 70.0 9.80892 17.513 0 
63 1 0.46 70.0 10.2496 17.5037 0 
137 1 0.46 70.0 10.6934 17.4916 0 
180 1 0.46 70.0 11.1407 17.4783 0 
109 1 0.46 70.0 11.5923 17.4655 0 
224 1 0.46 70.0 12.0451 17.4508 0 
288 1 0.46 70.0 12.5003 17.4369 0 
186 1 0.46 70.0 12.9589 17.4197 0 
273 1 0.46 70.0 13.4324 17.4041 0 
232 1 0.46 70.0 14.0288 17.5441 0 
50 1 0.46 70.0 14.5303 17.5692 0 
208 1 0.46 70.0 15.081 17.5615 0 
245 1 0.46 70.0 4.14402 17.9038 0 
90 1 0.46 70.0 4.74704 17.9126 0 
86 1 0.46 70.0 5.27968 17.964 0 
88 1 0.46 70.0 5.76749 18.0511 0 
103 1 0.46 70.0 6.22923 18.1486 0 
149 1 0.46 70.0 6.957 17.7784 0 
96 1 0.46 70.0 6.70031 18.1796 0 
9 1 0.46 70.0 7.40331 17.8244 0 
211 1 0.46 70.0 7.15579 18.2074 0 
2 1 0.46 70.0 8.28726 17.8768 0 
282 1 0.46 70.0 8.72047 17.8938 0 
215 1 0.46 70.0 9.16992 17.9008 0 
138 1 0.46 70.0 9.60276 17.9026 0 
126 1 0.46 70.0 10.0431 17.9007 0 
253 1 0.46 70.0 10.4845 17.8903 0 
115 1 0.46 70.0 10.9278 17.8775 0 
228 1 0.46 70.0 11.3749 17.8646 0 
120 1 0.46 70.0 11.8253 17.8522 0 
257 1 0.46 70.0 12.278 17.8395 0 
108 1 0.46 70.0 12.7328 17.8281 0 
85 1 0.46 70.0 13.1901 17.8161 0 
48 1 0.46 70.0 12.9667 18.2186 0 
255 1 0.46 70.0 13.6521 17.8033 0 
185 1 0.46 70.0 13.4258 18.2102 0 
110 1 0.46 70.0 13.8995 18.185 0 
258 1 0.46 70.0 14.3292 18.0232 0 
71 1 0.46 70.0 14.8517 18.0196 0 
153 1 0.46 70.0 15.498 17.9394 0 
243 1 0.46 70.0 4.42933 18.4085 0 
172 1 0.46 70.0 5.00281 18.4055 0 
74 1 0.46 70.0 5.5087 18.4636 0 
1 1 0.46 70.0 5.98477 18.5374 0 
295 1 0.46 70.0 6.45804 18.5724 0 
122 1 0.46 70.0 6.91578 18.5971 0 
236 1 0.46 70.0 7.37117 18.6113 0 
12 1 0.46 70.0 7.6113 18.2234 0 
177 1 0.46 70.0 7.82123 18.6309 0 
26 1 0.46 70.0 8.05259 18.2486 0 
66 1 0.46 70.0 8.26989 18.6502 0 
133 1 0.46 70.0 8.49975 18.2754 0 
223 1 0.46 70.0 8.71997 18.6651 0 
272 1 0.46 70.0 8.94522 18.284 0 
25 1 0.46 70.0 9.38742 18.2926 0 
244 1 0.46 70.0 9.8285 18.292 0 
78 1 0.46 70.0 10.2708 18.2861 0 
106 1 0.46 70.0 10.713 18.2746 0 
104 1 0.46 70.0 10.9404 18.657 0 
15 1 0.46 70.0 11.158 18.2622 0 
171 1 0.46 70.0 11.3868 18.6459 0 
246 1 0.46 70.0 11.606 18.2503 0 
152 1 0.46 70.0 11.8361 18.6357 0 
91 1 0.46 70.0 12.0569 18.2392 0 
38 1 0.46 70.0 12.2881 18.6263 0 
217 1 0.46 70.0 12.5103 18.2286 0 
19 1 0.46 70.0 12.7429 18.6174 0 
131 1 0.46 70.0 13.2008 18.6095 0 
173 1 0.46 70.0 13.6676 18.6004 0 
164 1 0.46 70.0 14.1573 18.5632 0 
147 1 0.46 70.0 14.628 18.4674 0 
7 1 0.46 70.0 15.1963 18.4279 0 
168 1 0.46 70.0 15.8417 18.442 0 
230 1 0.46 70.0 4.04664 18.8696 0 
265 1 0.46 70.0 4.73246 18.8533 0 
34 1 0.46 70.0 5.25387 18.8877 0 
220 1 0.46 70.0 5.74227 18.9349 0 
13 1 0.46 70.0 6.22007 18.966 0 
193 1 0.46 70.0 6.67921 18.989 0 
291 1 0.46 70.0 7.13581 19.0001 0 
155 1 0.46 70.0 7.58898 19.0141 0 
169 1 0.46 70.0 8.04056 19.0292 0 
51 1 0.46 70.0 8.49146 19.042 0 
59 1 0.46 70.0 8.94084 19.0526 0 
130 1 0.46 70.0 9.16601 18.6741 0 
231 1 0.46 70.0 9.60987 18.6792 0 
160 1 0.46 70.0 9.3869 19.0603 0 
101 1 0.46 70.0 10.0533 18.6767 0 
260 1 0.46 70.0 9.83253 19.0623 0 
11 1 0.46 70.0 10.4968 18.6686 0 
266 1 0.46 70.0 10.2775 19.0579 0 
161 1 0.46 70.0 10.7213 19.0484 0 
259 1 0.46 70.0 11.1672 19.0383 0 
241 1 0.46 70.0 11.6153 19.0293 0 
60 1 0.46 70.0 12.066 19.0212 0 
261 1 0.46 70.0 12.5195 19.0137 0 
127 1 0.46 70.0 12.976 19.0064 0 
119 1 0.46 70.0 13.4376 18.9991 0 
52 1 0.46 70.0 13.9161 18.9864 0 
46 1 0.46 70.0 14.4144 18.9503 0 
144 1 0.46 70.0 14.9215 18.8842 0 
192 1 0.46 70.0 15.503 18.8976 0 
270 1 0.46 70.0 4.44108 19.2821 0 
151 1 0.46 70.0 4.99271 19.3215 0 
216 1 0.46 70.0 5.49602 19.3467 0 
82 1 0.46 70.0 5.97999 19.3643 0 
97 1 0.46 70.0 6.44488 19.3829 0 
271 1 0.46 70.0 6.90279 19.3907 0 
293 1 0.46 70.0 7.3578 19.4002 0 
111 1 0.46 70.0 7.811 19.4107 0 
123 1 0.46 70.0 8.26317 19.4206 0 
269 1 0.46 70.0 8.71399 19.4292 0 
35 1 0.46 70.0 9.16311 19.4368 0 
235 1 0.46 70.0 9.60952 19.4425 0 
183 1 0.46 70.0 10.0566 19.4418 0 
22 1 0.46 70.0 10.5027 19.4362 0 
4 1 0.46 70.0 10.9475 19.4272 0 
214 1 0.46 70.0 11.3946 19.4199 0 
27 1 0.46 70.0 11.8441 19.4134 0 
178 1 0.46 70.0 12.2962 19.4074 0 
150 1 0.46 70.0 12.7512 19.4017 0 
225 1 0.46 70.0 13.2093 19.3954 0 
280 1 0.46 70.0 13.6757 19.3894 0 
83 1 0.46 70.0 14.163 19.3745 0 
292 1 0.46 70.0 14.6703 19.3518 0 
296 1 0.46 70.0 15.1941 19.3211 0 
47 1 0.46 70.0 15.9167 19.3188 0 
40 1 0.46 70.0 4.06029 19.6671 0 
251 1 0.46 70.0 4.70202 19.7485 0 
212 1 0.46 70.0 5.24293 19.7705 0 
247 1 0.46 70.0 5.74173 19.7745 0 
132 1 0.46 70.0 6.21278 19.7791 0 
134 1 0.46 70.0 6.67154 19.7838 0 
195 1 0.46 70.0 7.12763 19.7893 0 
79 1 0.46 70.0 7.58189 19.7955 0 
145 1 0.46 70.0 8.0349 19.8017 0 
285 1 0.46 70.0 8.48661 19.8073 0 
94 1 0.46 70.0 8.93651 19.8124 0 
8 1 0.46 70.0 9.38418 19.8185 0 
68 1 0.46 70.0 9.83328 19.8197 0 
32 1 0.46 70.0 10.2816 19.8181 0 
30 1 0.46 70.0 10.7273 19.8125 0 
196 1 0.46 70.0 11.1738 19.8073 0 
105 1 0.46 70.0 11.6222 19.8028 0 
240 1 0.46 70.0 12.073 19.7986 0 
294 1 0.46 70.0 12.5267 19.7947 0 
98 1 0.46 70.0 12.9835 19.7906 0 
283 1 0.46 70.0 13.4433 19.7854 0 
95 1 0.46 70.0 13.9165 19.7795 0 
93 1 0.46 70.0 14.4099 19.7744 0 
300 1 0.46 70.0 14.9336 19.7698 0 
301 1 0.46 70.0 15.5147 19.7256 0 
