# LAMMPS data file for rigid bodies

303 atoms

1 atom types

0.0 	 20.0 	 xlo xhi 
0.0 	 20.0 	 ylo yhi 
-1.0 	 1.0 	 zlo zhi 

Atoms

300 1 0.46 70.0 8.53653 13.6531 0 
151 1 0.46 70.0 9.16296 13.4288 0 
190 1 0.46 70.0 9.90842 13.6032 0 
76 1 0.46 70.0 10.4999 13.4228 0 
24 1 0.46 70.0 11.2847 13.5861 0 
15 1 0.46 70.0 7.92508 13.8742 0 
78 1 0.46 70.0 8.93205 14.0727 0 
301 1 0.46 70.0 9.44301 13.9119 0 
50 1 0.46 70.0 10.2844 14.0465 0 
117 1 0.46 70.0 10.8004 13.8995 0 
116 1 0.46 70.0 11.5901 14.0824 0 
233 1 0.46 70.0 12.0841 13.8022 0 
160 1 0.46 70.0 6.80637 14.5744 0 
198 1 0.46 70.0 7.34507 14.2299 0 
224 1 0.46 70.0 7.88805 14.452 0 
163 1 0.46 70.0 8.41054 14.2447 0 
122 1 0.46 70.0 8.85461 14.6065 0 
8 1 0.46 70.0 9.33834 14.4484 0 
282 1 0.46 70.0 9.82342 14.2709 0 
193 1 0.46 70.0 10.1815 14.6309 0 
21 1 0.46 70.0 10.6347 14.4543 0 
274 1 0.46 70.0 11.1215 14.3081 0 
250 1 0.46 70.0 11.5059 14.6495 0 
133 1 0.46 70.0 12.0096 14.4445 0 
191 1 0.46 70.0 12.5513 14.2253 0 
84 1 0.46 70.0 12.9686 14.6305 0 
184 1 0.46 70.0 6.39913 15.0855 0 
23 1 0.46 70.0 7.3946 14.8148 0 
4 1 0.46 70.0 7.89532 14.9658 0 
32 1 0.46 70.0 8.3738 14.7715 0 
176 1 0.46 70.0 8.81839 15.1077 0 
189 1 0.46 70.0 9.26483 14.9517 0 
293 1 0.46 70.0 9.72013 14.7939 0 
56 1 0.46 70.0 10.5441 14.9752 0 
16 1 0.46 70.0 11.0089 14.8176 0 
292 1 0.46 70.0 11.8795 14.9831 0 
157 1 0.46 70.0 12.4007 14.8112 0 
29 1 0.46 70.0 13.2464 15.1073 0 
71 1 0.46 70.0 13.7325 14.8298 0 
196 1 0.46 70.0 5.83654 15.2566 0 
105 1 0.46 70.0 6.95474 15.1294 0 
97 1 0.46 70.0 7.47623 15.3713 0 
256 1 0.46 70.0 7.93968 15.4368 0 
288 1 0.46 70.0 8.37682 15.2637 0 
123 1 0.46 70.0 9.19666 15.4417 0 
278 1 0.46 70.0 9.63217 15.2837 0 
275 1 0.46 70.0 10.0844 15.1313 0 
221 1 0.46 70.0 10.4304 15.4578 0 
262 1 0.46 70.0 10.8925 15.3068 0 
96 1 0.46 70.0 11.3735 15.148 0 
294 1 0.46 70.0 11.733 15.4676 0 
285 1 0.46 70.0 12.2315 15.3333 0 
101 1 0.46 70.0 12.7326 15.2117 0 
170 1 0.46 70.0 13.6055 15.5133 0 
135 1 0.46 70.0 14.1465 15.3421 0 
132 1 0.46 70.0 5.49179 15.8012 0 
120 1 0.46 70.0 6.06953 15.7827 0 
58 1 0.46 70.0 6.56791 15.6341 0 
89 1 0.46 70.0 7.06198 15.6229 0 
173 1 0.46 70.0 7.42796 15.9432 0 
3 1 0.46 70.0 7.88287 15.8905 0 
203 1 0.46 70.0 8.32911 15.7454 0 
159 1 0.46 70.0 8.76342 15.5947 0 
153 1 0.46 70.0 9.11399 15.9182 0 
31 1 0.46 70.0 9.54334 15.7606 0 
74 1 0.46 70.0 9.97663 15.6049 0 
44 1 0.46 70.0 10.313 15.9165 0 
207 1 0.46 70.0 10.7691 15.7689 0 
64 1 0.46 70.0 11.2431 15.6177 0 
219 1 0.46 70.0 11.5991 15.9187 0 
36 1 0.46 70.0 12.0865 15.8029 0 
155 1 0.46 70.0 12.5768 15.7096 0 
6 1 0.46 70.0 13.0771 15.6264 0 
88 1 0.46 70.0 13.9514 15.9381 0 
199 1 0.46 70.0 14.5246 15.8281 0 
51 1 0.46 70.0 5.35864 16.3528 0 
129 1 0.46 70.0 5.93191 16.2998 0 
158 1 0.46 70.0 6.46078 16.1732 0 
134 1 0.46 70.0 6.9486 16.0942 0 
102 1 0.46 70.0 7.34158 16.4243 0 
228 1 0.46 70.0 7.79303 16.3395 0 
240 1 0.46 70.0 8.24232 16.2031 0 
139 1 0.46 70.0 8.67991 16.0632 0 
70 1 0.46 70.0 9.02119 16.3722 0 
255 1 0.46 70.0 9.45285 16.2285 0 
230 1 0.46 70.0 9.88031 16.0708 0 
137 1 0.46 70.0 10.2187 16.373 0 
150 1 0.46 70.0 10.657 16.2142 0 
264 1 0.46 70.0 11.1218 16.0623 0 
85 1 0.46 70.0 11.4722 16.3585 0 
112 1 0.46 70.0 11.9445 16.241 0 
148 1 0.46 70.0 12.4237 16.1691 0 
259 1 0.46 70.0 12.9098 16.1057 0 
104 1 0.46 70.0 13.4172 16.0276 0 
35 1 0.46 70.0 13.7412 16.4381 0 
33 1 0.46 70.0 14.2835 16.3755 0 
143 1 0.46 70.0 14.8833 16.3169 0 
114 1 0.46 70.0 4.85761 16.7555 0 
225 1 0.46 70.0 5.42519 16.8838 0 
272 1 0.46 70.0 5.93399 16.8014 0 
179 1 0.46 70.0 6.40983 16.6671 0 
223 1 0.46 70.0 6.87934 16.5635 0 
27 1 0.46 70.0 7.26205 16.8831 0 
141 1 0.46 70.0 7.70989 16.7892 0 
185 1 0.46 70.0 8.14924 16.6511 0 
283 1 0.46 70.0 8.58675 16.5125 0 
202 1 0.46 70.0 8.92834 16.8192 0 
220 1 0.46 70.0 9.36241 16.6783 0 
138 1 0.46 70.0 9.79277 16.5345 0 
241 1 0.46 70.0 10.133 16.8352 0 
277 1 0.46 70.0 10.5619 16.6609 0 
17 1 0.46 70.0 11.006 16.5037 0 
249 1 0.46 70.0 11.3525 16.7957 0 
266 1 0.46 70.0 11.8094 16.6766 0 
246 1 0.46 70.0 12.2709 16.6028 0 
80 1 0.46 70.0 12.741 16.5591 0 
99 1 0.46 70.0 13.2291 16.4997 0 
11 1 0.46 70.0 14.0525 16.8596 0 
273 1 0.46 70.0 14.6008 16.8247 0 
87 1 0.46 70.0 15.23 16.8252 0 
263 1 0.46 70.0 5.90838 17.2881 0 
188 1 0.46 70.0 6.36325 17.1542 0 
215 1 0.46 70.0 6.81021 17.0287 0 
195 1 0.46 70.0 7.16971 17.3318 0 
115 1 0.46 70.0 7.61468 17.2376 0 
299 1 0.46 70.0 8.0515 17.096 0 
65 1 0.46 70.0 8.49126 16.9571 0 
297 1 0.46 70.0 8.83148 17.2615 0 
92 1 0.46 70.0 9.2706 17.1224 0 
181 1 0.46 70.0 9.70268 16.9846 0 
175 1 0.46 70.0 10.0405 17.2885 0 
265 1 0.46 70.0 10.4885 17.1085 0 
125 1 0.46 70.0 10.9062 16.9461 0 
226 1 0.46 70.0 11.2376 17.2307 0 
242 1 0.46 70.0 11.6812 17.1098 0 
136 1 0.46 70.0 12.132 17.037 0 
239 1 0.46 70.0 12.5877 16.9962 0 
222 1 0.46 70.0 13.0498 16.9499 0 
140 1 0.46 70.0 13.5357 16.8993 0 
254 1 0.46 70.0 13.8229 17.3062 0 
45 1 0.46 70.0 14.3487 17.2957 0 
269 1 0.46 70.0 14.8987 17.2875 0 
47 1 0.46 70.0 4.35171 17.4497 0 
1 1 0.46 70.0 4.91857 17.3507 0 
13 1 0.46 70.0 5.43344 17.3856 0 
280 1 0.46 70.0 5.79736 17.7674 0 
40 1 0.46 70.0 6.27214 17.6392 0 
165 1 0.46 70.0 6.71755 17.5014 0 
154 1 0.46 70.0 7.08429 17.7756 0 
174 1 0.46 70.0 7.53073 17.6946 0 
124 1 0.46 70.0 7.95467 17.5415 0 
295 1 0.46 70.0 8.39077 17.3976 0 
62 1 0.46 70.0 8.72255 17.6993 0 
103 1 0.46 70.0 9.17358 17.5571 0 
303 1 0.46 70.0 9.61082 17.432 0 
236 1 0.46 70.0 9.93976 17.7518 0 
268 1 0.46 70.0 10.409 17.5374 0 
95 1 0.46 70.0 10.8398 17.4166 0 
258 1 0.46 70.0 11.5325 17.5314 0 
94 1 0.46 70.0 11.9742 17.4622 0 
290 1 0.46 70.0 12.425 17.4251 0 
52 1 0.46 70.0 12.8798 17.39 0 
232 1 0.46 70.0 13.3376 17.3453 0 
42 1 0.46 70.0 13.5964 17.7456 0 
166 1 0.46 70.0 14.0866 17.718 0 
39 1 0.46 70.0 14.6304 17.7533 0 
298 1 0.46 70.0 15.1643 17.7659 0 
127 1 0.46 70.0 15.5713 17.3834 0 
248 1 0.46 70.0 4.19601 18.1076 0 
28 1 0.46 70.0 4.74233 17.9194 0 
86 1 0.46 70.0 5.27612 17.8528 0 
251 1 0.46 70.0 5.6424 18.2192 0 
276 1 0.46 70.0 6.15834 18.1047 0 
110 1 0.46 70.0 6.61235 17.9808 0 
41 1 0.46 70.0 7.00337 18.2117 0 
7 1 0.46 70.0 7.44949 18.1433 0 
9 1 0.46 70.0 7.87959 18.0248 0 
100 1 0.46 70.0 8.2854 17.8378 0 
145 1 0.46 70.0 8.59736 18.1344 0 
208 1 0.46 70.0 9.06129 17.9815 0 
270 1 0.46 70.0 9.50217 17.8702 0 
167 1 0.46 70.0 9.79972 18.209 0 
107 1 0.46 70.0 10.3399 17.9496 0 
22 1 0.46 70.0 10.7779 17.8579 0 
119 1 0.46 70.0 11.2209 17.8313 0 
212 1 0.46 70.0 11.7779 17.8754 0 
243 1 0.46 70.0 12.2264 17.8387 0 
171 1 0.46 70.0 12.6789 17.8125 0 
118 1 0.46 70.0 13.1353 17.7846 0 
91 1 0.46 70.0 12.9182 18.2036 0 
217 1 0.46 70.0 13.3755 18.1795 0 
121 1 0.46 70.0 13.8408 18.1483 0 
205 1 0.46 70.0 14.3337 18.131 0 
182 1 0.46 70.0 15.5795 18.1405 0 
194 1 0.46 70.0 4.61635 18.5328 0 
197 1 0.46 70.0 5.10335 18.3253 0 
26 1 0.46 70.0 5.45942 18.6651 0 
75 1 0.46 70.0 5.99875 18.5383 0 
81 1 0.46 70.0 6.47752 18.4652 0 
234 1 0.46 70.0 6.89832 18.6334 0 
204 1 0.46 70.0 7.34604 18.5828 0 
109 1 0.46 70.0 7.7866 18.5039 0 
108 1 0.46 70.0 8.20126 18.3454 0 
18 1 0.46 70.0 8.55319 18.6161 0 
142 1 0.46 70.0 8.92616 18.3945 0 
238 1 0.46 70.0 9.36886 18.299 0 
49 1 0.46 70.0 10.2084 18.3365 0 
245 1 0.46 70.0 10.649 18.2829 0 
252 1 0.46 70.0 11.0914 18.2548 0 
59 1 0.46 70.0 10.8997 18.658 0 
128 1 0.46 70.0 11.5389 18.2419 0 
187 1 0.46 70.0 11.3398 18.6394 0 
267 1 0.46 70.0 11.7878 18.628 0 
98 1 0.46 70.0 12.0116 18.2436 0 
231 1 0.46 70.0 12.2448 18.6232 0 
260 1 0.46 70.0 12.4641 18.2223 0 
131 1 0.46 70.0 12.6991 18.6088 0 
79 1 0.46 70.0 13.1545 18.5957 0 
296 1 0.46 70.0 13.6121 18.5756 0 
68 1 0.46 70.0 14.0777 18.5565 0 
106 1 0.46 70.0 14.5685 18.5333 0 
156 1 0.46 70.0 14.9527 18.2397 0 
200 1 0.46 70.0 15.3088 18.6636 0 
38 1 0.46 70.0 15.9206 18.6501 0 
279 1 0.46 70.0 4.09332 18.7314 0 
146 1 0.46 70.0 5.02725 18.8632 0 
206 1 0.46 70.0 5.80354 18.9636 0 
147 1 0.46 70.0 6.26013 18.9229 0 
210 1 0.46 70.0 6.69926 19.0178 0 
227 1 0.46 70.0 7.16945 19.0004 0 
60 1 0.46 70.0 7.62589 18.9453 0 
82 1 0.46 70.0 8.07392 18.8594 0 
284 1 0.46 70.0 8.48038 19.0378 0 
61 1 0.46 70.0 8.92161 19.0372 0 
43 1 0.46 70.0 9.18234 18.7026 0 
237 1 0.46 70.0 9.60979 18.6703 0 
213 1 0.46 70.0 9.38 19.069 0 
20 1 0.46 70.0 9.81167 19.0761 0 
67 1 0.46 70.0 10.0265 18.7061 0 
209 1 0.46 70.0 10.4661 18.6891 0 
19 1 0.46 70.0 10.2555 19.0767 0 
93 1 0.46 70.0 10.6959 19.0584 0 
177 1 0.46 70.0 11.1349 19.0376 0 
57 1 0.46 70.0 11.5778 19.0238 0 
14 1 0.46 70.0 12.0257 19.0151 0 
77 1 0.46 70.0 12.4792 19.0081 0 
37 1 0.46 70.0 12.9338 18.9981 0 
281 1 0.46 70.0 13.3908 18.9886 0 
235 1 0.46 70.0 13.8506 18.9761 0 
180 1 0.46 70.0 14.3341 18.9606 0 
144 1 0.46 70.0 14.8566 18.9039 0 
291 1 0.46 70.0 3.86873 19.2855 0 
53 1 0.46 70.0 4.52567 19.1512 0 
178 1 0.46 70.0 5.02811 19.3353 0 
12 1 0.46 70.0 5.50508 19.3126 0 
66 1 0.46 70.0 6.0074 19.3729 0 
183 1 0.46 70.0 6.46357 19.3955 0 
257 1 0.46 70.0 6.93893 19.3966 0 
111 1 0.46 70.0 7.39296 19.3891 0 
63 1 0.46 70.0 7.83613 19.3447 0 
46 1 0.46 70.0 8.26385 19.4105 0 
55 1 0.46 70.0 8.70762 19.4233 0 
302 1 0.46 70.0 9.14734 19.4315 0 
72 1 0.46 70.0 9.59245 19.4518 0 
214 1 0.46 70.0 10.0364 19.4533 0 
289 1 0.46 70.0 10.482 19.4467 0 
211 1 0.46 70.0 10.9238 19.4318 0 
113 1 0.46 70.0 11.3656 19.4185 0 
186 1 0.46 70.0 11.8103 19.4094 0 
286 1 0.46 70.0 12.2591 19.4028 0 
149 1 0.46 70.0 12.7119 19.3967 0 
261 1 0.46 70.0 13.1673 19.3897 0 
162 1 0.46 70.0 13.6256 19.3834 0 
5 1 0.46 70.0 14.0978 19.3749 0 
152 1 0.46 70.0 14.6002 19.3549 0 
168 1 0.46 70.0 15.1206 19.3106 0 
247 1 0.46 70.0 15.6242 19.15 0 
271 1 0.46 70.0 4.25783 19.6832 0 
2 1 0.46 70.0 4.77358 19.7488 0 
244 1 0.46 70.0 5.29384 19.7702 0 
201 1 0.46 70.0 5.76723 19.7724 0 
90 1 0.46 70.0 6.23382 19.7855 0 
229 1 0.46 70.0 6.70156 19.7859 0 
253 1 0.46 70.0 7.15863 19.7892 0 
192 1 0.46 70.0 7.60586 19.785 0 
73 1 0.46 70.0 8.04131 19.7924 0 
54 1 0.46 70.0 8.4838 19.8041 0 
69 1 0.46 70.0 8.9267 19.8109 0 
30 1 0.46 70.0 9.36845 19.8182 0 
164 1 0.46 70.0 9.81472 19.8264 0 
216 1 0.46 70.0 10.2618 19.8245 0 
169 1 0.46 70.0 10.7064 19.8174 0 
25 1 0.46 70.0 11.1497 19.8091 0 
10 1 0.46 70.0 11.5933 19.802 0 
218 1 0.46 70.0 12.0396 19.7967 0 
287 1 0.46 70.0 12.4894 19.7923 0 
172 1 0.46 70.0 12.943 19.7879 0 
130 1 0.46 70.0 13.3995 19.7834 0 
126 1 0.46 70.0 13.8594 19.7793 0 
34 1 0.46 70.0 14.3447 19.7749 0 
83 1 0.46 70.0 14.8598 19.77 0 
48 1 0.46 70.0 15.4105 19.7302 0 
161 1 0.46 70.0 15.9778 19.6147 0 
