# LAMMPS data file for rigid bodies

303 atoms

1 atom types

0.0 	 20.0 	 xlo xhi 
0.0 	 20.0 	 ylo yhi 
-1.0 	 1.0 	 zlo zhi 

Atoms

235 1 0.46 70.0 9.23799 13.2608 0 
40 1 0.46 70.0 10.6213 13.3081 0 
84 1 0.46 70.0 11.6678 13.3064 0 
243 1 0.46 70.0 8.74128 13.6199 0 
206 1 0.46 70.0 9.81858 13.4567 0 
249 1 0.46 70.0 10.2896 13.7595 0 
223 1 0.46 70.0 11.1674 13.6078 0 
74 1 0.46 70.0 12.3148 13.5836 0 
44 1 0.46 70.0 7.78291 13.8785 0 
29 1 0.46 70.0 8.35363 14.0359 0 
161 1 0.46 70.0 8.9143 14.1785 0 
133 1 0.46 70.0 9.346 13.8403 0 
131 1 0.46 70.0 9.8522 14.0637 0 
200 1 0.46 70.0 10.7828 13.9751 0 
217 1 0.46 70.0 11.306 14.1798 0 
229 1 0.46 70.0 11.7595 13.8867 0 
177 1 0.46 70.0 12.3133 14.1438 0 
78 1 0.46 70.0 7.3621 14.3311 0 
166 1 0.46 70.0 7.96801 14.4499 0 
209 1 0.46 70.0 8.5212 14.5559 0 
119 1 0.46 70.0 9.43682 14.3799 0 
171 1 0.46 70.0 9.95633 14.5723 0 
122 1 0.46 70.0 10.3711 14.2946 0 
16 1 0.46 70.0 10.889 14.4888 0 
106 1 0.46 70.0 11.8375 14.424 0 
279 1 0.46 70.0 12.8659 14.3207 0 
226 1 0.46 70.0 13.3919 14.6089 0 
36 1 0.46 70.0 6.55227 14.6935 0 
117 1 0.46 70.0 7.1041 14.8269 0 
205 1 0.46 70.0 7.6494 14.8758 0 
238 1 0.46 70.0 8.17604 14.9518 0 
149 1 0.46 70.0 8.68222 15.0386 0 
91 1 0.46 70.0 9.04046 14.6844 0 
92 1 0.46 70.0 9.56592 14.8645 0 
254 1 0.46 70.0 10.086 15.0357 0 
237 1 0.46 70.0 10.4858 14.7758 0 
17 1 0.46 70.0 10.9906 14.9694 0 
55 1 0.46 70.0 11.4 14.6939 0 
283 1 0.46 70.0 11.8982 14.9279 0 
80 1 0.46 70.0 12.3653 14.6678 0 
241 1 0.46 70.0 12.8672 14.9109 0 
303 1 0.46 70.0 13.9385 14.9351 0 
259 1 0.46 70.0 6.19721 15.2084 0 
118 1 0.46 70.0 6.78437 15.2753 0 
268 1 0.46 70.0 7.35157 15.3107 0 
198 1 0.46 70.0 7.86792 15.3607 0 
87 1 0.46 70.0 8.36155 15.4236 0 
23 1 0.46 70.0 8.84634 15.4868 0 
236 1 0.46 70.0 9.18538 15.143 0 
184 1 0.46 70.0 9.71157 15.3146 0 
275 1 0.46 70.0 10.2096 15.4797 0 
110 1 0.46 70.0 10.5971 15.2323 0 
95 1 0.46 70.0 11.0497 15.4412 0 
138 1 0.46 70.0 11.4633 15.1835 0 
271 1 0.46 70.0 11.9275 15.4123 0 
162 1 0.46 70.0 12.3857 15.1695 0 
156 1 0.46 70.0 12.8658 15.4442 0 
69 1 0.46 70.0 13.3639 15.1875 0 
178 1 0.46 70.0 13.8836 15.4983 0 
153 1 0.46 70.0 5.89451 15.7073 0 
116 1 0.46 70.0 6.4915 15.727 0 
147 1 0.46 70.0 7.06851 15.7268 0 
75 1 0.46 70.0 7.58567 15.7714 0 
100 1 0.46 70.0 8.07211 15.8209 0 
127 1 0.46 70.0 8.54516 15.8682 0 
7 1 0.46 70.0 9.0122 15.9144 0 
49 1 0.46 70.0 9.3351 15.5763 0 
233 1 0.46 70.0 9.84386 15.7545 0 
150 1 0.46 70.0 10.6469 15.6902 0 
190 1 0.46 70.0 10.2587 15.939 0 
276 1 0.46 70.0 11.081 15.8995 0 
140 1 0.46 70.0 11.4954 15.6541 0 
253 1 0.46 70.0 11.9485 15.8768 0 
89 1 0.46 70.0 12.3936 15.6463 0 
173 1 0.46 70.0 12.8744 15.9456 0 
199 1 0.46 70.0 13.3512 15.7117 0 
107 1 0.46 70.0 14.4014 15.8189 0 
267 1 0.46 70.0 5.24679 16.0108 0 
97 1 0.46 70.0 5.75115 16.2467 0 
160 1 0.46 70.0 6.26394 16.2018 0 
158 1 0.46 70.0 6.81928 16.1427 0 
194 1 0.46 70.0 7.327 16.1771 0 
57 1 0.46 70.0 7.80758 16.2203 0 
290 1 0.46 70.0 8.27317 16.259 0 
101 1 0.46 70.0 8.7316 16.2902 0 
180 1 0.46 70.0 9.18578 16.3359 0 
270 1 0.46 70.0 9.47617 16.008 0 
218 1 0.46 70.0 9.8399 16.2731 0 
33 1 0.46 70.0 10.2835 16.3871 0 
124 1 0.46 70.0 10.6822 16.1458 0 
277 1 0.46 70.0 11.5314 16.1108 0 
201 1 0.46 70.0 11.1386 16.3508 0 
9 1 0.46 70.0 12.0071 16.3306 0 
18 1 0.46 70.0 12.4233 16.1041 0 
287 1 0.46 70.0 12.8642 16.4413 0 
4 1 0.46 70.0 13.3208 16.21 0 
159 1 0.46 70.0 13.8301 16.0246 0 
202 1 0.46 70.0 14.2703 16.3948 0 
129 1 0.46 70.0 14.8528 16.2998 0 
273 1 0.46 70.0 4.90034 16.5847 0 
5 1 0.46 70.0 5.45877 16.6976 0 
66 1 0.46 70.0 5.99792 16.7209 0 
302 1 0.46 70.0 6.59503 16.5622 0 
234 1 0.46 70.0 7.09017 16.583 0 
262 1 0.46 70.0 7.56365 16.6193 0 
280 1 0.46 70.0 8.025 16.6501 0 
15 1 0.46 70.0 8.48269 16.6742 0 
151 1 0.46 70.0 8.93834 16.7021 0 
152 1 0.46 70.0 9.45837 16.6867 0 
286 1 0.46 70.0 9.91208 16.7193 0 
6 1 0.46 70.0 10.3602 16.8222 0 
265 1 0.46 70.0 10.75 16.5913 0 
72 1 0.46 70.0 11.2279 16.7935 0 
46 1 0.46 70.0 11.6125 16.5581 0 
188 1 0.46 70.0 12.024 16.7929 0 
109 1 0.46 70.0 12.4225 16.5609 0 
60 1 0.46 70.0 13.2765 16.6932 0 
278 1 0.46 70.0 13.7531 16.5246 0 
183 1 0.46 70.0 14.6288 16.8469 0 
77 1 0.46 70.0 15.2493 16.867 0 
143 1 0.46 70.0 4.52525 17.1415 0 
35 1 0.46 70.0 5.1381 17.1531 0 
176 1 0.46 70.0 5.68229 17.1889 0 
76 1 0.46 70.0 6.39406 16.9752 0 
13 1 0.46 70.0 6.86795 16.9929 0 
93 1 0.46 70.0 7.32712 17.0178 0 
64 1 0.46 70.0 7.78455 17.0412 0 
22 1 0.46 70.0 8.23983 17.0602 0 
207 1 0.46 70.0 8.69371 17.0809 0 
228 1 0.46 70.0 9.15041 17.094 0 
48 1 0.46 70.0 9.59826 17.113 0 
293 1 0.46 70.0 10.0444 17.1483 0 
134 1 0.46 70.0 10.4871 17.242 0 
24 1 0.46 70.0 10.8554 17.0263 0 
68 1 0.46 70.0 11.2372 17.2637 0 
288 1 0.46 70.0 11.6239 17.0146 0 
189 1 0.46 70.0 12.0178 17.2506 0 
79 1 0.46 70.0 12.4434 17.0117 0 
255 1 0.46 70.0 12.896 16.946 0 
296 1 0.46 70.0 13.616 17.0028 0 
213 1 0.46 70.0 14.1055 16.9217 0 
52 1 0.46 70.0 14.9099 17.3251 0 
298 1 0.46 70.0 4.83 17.6275 0 
256 1 0.46 70.0 5.38332 17.6456 0 
232 1 0.46 70.0 6.13337 17.3523 0 
38 1 0.46 70.0 5.87563 17.7347 0 
8 1 0.46 70.0 6.6246 17.3977 0 
221 1 0.46 70.0 7.08754 17.4161 0 
212 1 0.46 70.0 7.54486 17.4315 0 
99 1 0.46 70.0 7.99949 17.4474 0 
132 1 0.46 70.0 8.45189 17.4648 0 
225 1 0.46 70.0 8.90276 17.4802 0 
28 1 0.46 70.0 9.34767 17.4979 0 
269 1 0.46 70.0 9.78614 17.5217 0 
98 1 0.46 70.0 10.2214 17.5593 0 
47 1 0.46 70.0 10.8504 17.4869 0 
155 1 0.46 70.0 11.2918 17.7735 0 
21 1 0.46 70.0 11.6297 17.4645 0 
220 1 0.46 70.0 12.4097 17.4574 0 
136 1 0.46 70.0 12.8583 17.4011 0 
154 1 0.46 70.0 13.3123 17.3456 0 
224 1 0.46 70.0 13.5757 17.7623 0 
43 1 0.46 70.0 13.869 17.4055 0 
103 1 0.46 70.0 14.3749 17.363 0 
197 1 0.46 70.0 15.2928 17.7139 0 
295 1 0.46 70.0 4.4417 18.0357 0 
157 1 0.46 70.0 5.078 18.1004 0 
230 1 0.46 70.0 5.61417 18.1294 0 
65 1 0.46 70.0 6.1234 18.1716 0 
121 1 0.46 70.0 6.37322 17.7854 0 
104 1 0.46 70.0 6.60755 18.1995 0 
54 1 0.46 70.0 6.84817 17.8089 0 
31 1 0.46 70.0 7.06917 18.2118 0 
181 1 0.46 70.0 7.30657 17.8218 0 
231 1 0.46 70.0 7.76177 17.8356 0 
208 1 0.46 70.0 8.21405 17.8505 0 
51 1 0.46 70.0 8.66364 17.8657 0 
105 1 0.46 70.0 9.10891 17.8824 0 
61 1 0.46 70.0 9.54938 17.9025 0 
203 1 0.46 70.0 9.98906 17.9253 0 
112 1 0.46 70.0 10.4405 17.9203 0 
301 1 0.46 70.0 10.873 17.9148 0 
163 1 0.46 70.0 11.7316 17.8796 0 
37 1 0.46 70.0 12.1746 17.8366 0 
261 1 0.46 70.0 12.6514 17.8319 0 
130 1 0.46 70.0 12.8876 18.2157 0 
14 1 0.46 70.0 13.1081 17.7914 0 
39 1 0.46 70.0 13.3456 18.1857 0 
294 1 0.46 70.0 14.1433 17.8256 0 
114 1 0.46 70.0 13.8237 18.1621 0 
219 1 0.46 70.0 14.6701 17.805 0 
300 1 0.46 70.0 15.5766 18.2117 0 
88 1 0.46 70.0 4.12712 18.5661 0 
175 1 0.46 70.0 4.75493 18.5309 0 
85 1 0.46 70.0 5.35646 18.5334 0 
1 1 0.46 70.0 5.87625 18.5612 0 
245 1 0.46 70.0 6.36522 18.5888 0 
193 1 0.46 70.0 6.83304 18.602 0 
142 1 0.46 70.0 7.52572 18.2239 0 
251 1 0.46 70.0 7.29095 18.6124 0 
41 1 0.46 70.0 7.97897 18.2367 0 
82 1 0.46 70.0 7.74553 18.6233 0 
299 1 0.46 70.0 8.4292 18.2504 0 
71 1 0.46 70.0 8.19702 18.6349 0 
53 1 0.46 70.0 8.87601 18.2655 0 
45 1 0.46 70.0 8.64547 18.6477 0 
281 1 0.46 70.0 9.31937 18.2827 0 
20 1 0.46 70.0 9.09103 18.6622 0 
215 1 0.46 70.0 9.76069 18.3007 0 
170 1 0.46 70.0 10.2068 18.3058 0 
3 1 0.46 70.0 10.6485 18.3041 0 
185 1 0.46 70.0 11.0918 18.2839 0 
12 1 0.46 70.0 11.5238 18.263 0 
167 1 0.46 70.0 11.315 18.6639 0 
141 1 0.46 70.0 11.9775 18.2493 0 
96 1 0.46 70.0 11.7611 18.6449 0 
210 1 0.46 70.0 12.213 18.6301 0 
297 1 0.46 70.0 12.4279 18.2265 0 
126 1 0.46 70.0 12.6659 18.6147 0 
11 1 0.46 70.0 13.1241 18.603 0 
257 1 0.46 70.0 13.5831 18.5793 0 
10 1 0.46 70.0 14.0652 18.5533 0 
174 1 0.46 70.0 14.4292 18.2609 0 
83 1 0.46 70.0 14.9777 18.2267 0 
187 1 0.46 70.0 4.4606 19.0282 0 
145 1 0.46 70.0 5.09109 18.932 0 
285 1 0.46 70.0 5.62852 18.9559 0 
211 1 0.46 70.0 6.12487 18.9798 0 
135 1 0.46 70.0 6.59817 18.9931 0 
248 1 0.46 70.0 7.05727 19.0016 0 
144 1 0.46 70.0 7.51318 19.0104 0 
128 1 0.46 70.0 7.96605 19.0197 0 
240 1 0.46 70.0 8.41611 19.0299 0 
192 1 0.46 70.0 8.86369 19.0413 0 
34 1 0.46 70.0 9.30943 19.0539 0 
59 1 0.46 70.0 9.53422 18.6777 0 
125 1 0.46 70.0 9.75409 19.0646 0 
239 1 0.46 70.0 9.97947 18.6866 0 
250 1 0.46 70.0 10.2 19.0686 0 
62 1 0.46 70.0 10.4246 18.6881 0 
19 1 0.46 70.0 10.6465 19.0637 0 
56 1 0.46 70.0 10.8705 18.6783 0 
246 1 0.46 70.0 11.0944 19.0541 0 
86 1 0.46 70.0 11.5433 19.0408 0 
196 1 0.46 70.0 11.9931 19.0265 0 
50 1 0.46 70.0 12.4458 19.0144 0 
113 1 0.46 70.0 12.9007 19.003 0 
148 1 0.46 70.0 13.359 18.9932 0 
284 1 0.46 70.0 13.8223 18.9721 0 
32 1 0.46 70.0 14.3109 18.9416 0 
195 1 0.46 70.0 14.72 18.7038 0 
81 1 0.46 70.0 15.2542 18.7008 0 
58 1 0.46 70.0 15.8819 18.7443 0 
70 1 0.46 70.0 4.03507 19.459 0 
204 1 0.46 70.0 4.85878 19.3571 0 
137 1 0.46 70.0 5.38569 19.3585 0 
252 1 0.46 70.0 5.88636 19.373 0 
168 1 0.46 70.0 6.36454 19.3861 0 
258 1 0.46 70.0 6.82466 19.3921 0 
291 1 0.46 70.0 7.28168 19.3988 0 
214 1 0.46 70.0 7.7358 19.4057 0 
26 1 0.46 70.0 8.18719 19.4131 0 
67 1 0.46 70.0 8.63616 19.4213 0 
90 1 0.46 70.0 9.08315 19.4303 0 
222 1 0.46 70.0 9.52862 19.4404 0 
165 1 0.46 70.0 9.97566 19.446 0 
108 1 0.46 70.0 10.4238 19.4449 0 
274 1 0.46 70.0 10.8715 19.438 0 
186 1 0.46 70.0 11.3212 19.4295 0 
139 1 0.46 70.0 11.7718 19.4196 0 
272 1 0.46 70.0 12.2235 19.4097 0 
63 1 0.46 70.0 12.6775 19.401 0 
264 1 0.46 70.0 13.1337 19.3929 0 
289 1 0.46 70.0 13.5928 19.3856 0 
169 1 0.46 70.0 14.0614 19.3677 0 
244 1 0.46 70.0 14.5478 19.3415 0 
164 1 0.46 70.0 14.9996 19.189 0 
115 1 0.46 70.0 15.5317 19.1943 0 
2 1 0.46 70.0 4.53209 19.7341 0 
73 1 0.46 70.0 5.12854 19.7725 0 
242 1 0.46 70.0 5.64458 19.7751 0 
120 1 0.46 70.0 6.12892 19.7796 0 
146 1 0.46 70.0 6.59297 19.7846 0 
111 1 0.46 70.0 7.05091 19.789 0 
102 1 0.46 70.0 7.50613 19.7935 0 
260 1 0.46 70.0 7.95872 19.7982 0 
123 1 0.46 70.0 8.40891 19.8032 0 
30 1 0.46 70.0 8.85714 19.8086 0 
216 1 0.46 70.0 9.30408 19.8145 0 
247 1 0.46 70.0 9.75065 19.8204 0 
42 1 0.46 70.0 10.1995 19.8215 0 
191 1 0.46 70.0 10.6479 19.8176 0 
266 1 0.46 70.0 11.0976 19.8128 0 
27 1 0.46 70.0 11.5485 19.8072 0 
25 1 0.46 70.0 12.0003 19.8012 0 
172 1 0.46 70.0 12.4533 19.7953 0 
282 1 0.46 70.0 12.9083 19.7899 0 
179 1 0.46 70.0 13.3657 19.7849 0 
292 1 0.46 70.0 13.8263 19.7799 0 
182 1 0.46 70.0 14.3037 19.7744 0 
94 1 0.46 70.0 14.8056 19.7551 0 
227 1 0.46 70.0 15.3075 19.7002 0 
263 1 0.46 70.0 15.8949 19.636 0 
