# LAMMPS data file for rigid bodies

303 atoms

1 atom types

0.0 	 20.0 	 xlo xhi 
0.0 	 20.0 	 ylo yhi 
-1.0 	 1.0 	 zlo zhi 

Atoms

74 1 0.46 70.0 8.77341 13.7137 0 
266 1 0.46 70.0 9.3866 13.5697 0 
64 1 0.46 70.0 10.0112 13.5655 0 
8 1 0.46 70.0 10.6325 13.5692 0 
73 1 0.46 70.0 11.2881 13.7543 0 
242 1 0.46 70.0 7.52188 14.1236 0 
158 1 0.46 70.0 8.16036 13.8404 0 
67 1 0.46 70.0 9.19467 14.1113 0 
112 1 0.46 70.0 9.74559 14.0869 0 
149 1 0.46 70.0 10.2994 14.0859 0 
217 1 0.46 70.0 10.8516 14.1065 0 
256 1 0.46 70.0 11.9004 13.8639 0 
62 1 0.46 70.0 12.5629 14.1764 0 
135 1 0.46 70.0 6.89264 14.4962 0 
274 1 0.46 70.0 8.03853 14.4044 0 
167 1 0.46 70.0 8.59211 14.2772 0 
44 1 0.46 70.0 9.00832 14.5893 0 
84 1 0.46 70.0 9.52304 14.5704 0 
7 1 0.46 70.0 10.0314 14.5655 0 
229 1 0.46 70.0 10.5391 14.5681 0 
40 1 0.46 70.0 11.0503 14.5808 0 
2 1 0.46 70.0 11.4909 14.33 0 
35 1 0.46 70.0 12.0354 14.4225 0 
290 1 0.46 70.0 13.2191 14.5476 0 
188 1 0.46 70.0 6.31309 14.9118 0 
53 1 0.46 70.0 6.8535 15.0845 0 
97 1 0.46 70.0 7.43512 14.6991 0 
152 1 0.46 70.0 7.91846 14.9092 0 
195 1 0.46 70.0 8.42994 14.8065 0 
151 1 0.46 70.0 8.853 15.036 0 
298 1 0.46 70.0 9.33739 15.0286 0 
240 1 0.46 70.0 9.81041 15.0265 0 
54 1 0.46 70.0 10.2828 15.0247 0 
273 1 0.46 70.0 10.7541 15.0246 0 
137 1 0.46 70.0 11.2339 15.022 0 
187 1 0.46 70.0 11.6821 14.8669 0 
32 1 0.46 70.0 12.1888 14.9157 0 
288 1 0.46 70.0 12.6765 14.7493 0 
129 1 0.46 70.0 13.6576 15.0178 0 
282 1 0.46 70.0 5.92808 15.3938 0 
244 1 0.46 70.0 6.49662 15.5241 0 
14 1 0.46 70.0 7.34701 15.2225 0 
186 1 0.46 70.0 7.79729 15.3804 0 
182 1 0.46 70.0 8.2648 15.3162 0 
56 1 0.46 70.0 8.69688 15.4659 0 
260 1 0.46 70.0 9.15533 15.4659 0 
87 1 0.46 70.0 9.61309 15.4686 0 
147 1 0.46 70.0 10.0716 15.4671 0 
50 1 0.46 70.0 10.531 15.4638 0 
113 1 0.46 70.0 10.9948 15.454 0 
82 1 0.46 70.0 11.481 15.4185 0 
66 1 0.46 70.0 11.9546 15.3504 0 
120 1 0.46 70.0 12.5175 15.3031 0 
253 1 0.46 70.0 13.07 15.141 0 
43 1 0.46 70.0 14.1053 15.4896 0 
247 1 0.46 70.0 5.3775 15.7989 0 
126 1 0.46 70.0 5.91669 15.9613 0 
91 1 0.46 70.0 7.02101 15.6308 0 
121 1 0.46 70.0 7.5069 15.7634 0 
60 1 0.46 70.0 8.0089 15.8027 0 
59 1 0.46 70.0 8.46307 15.8575 0 
250 1 0.46 70.0 8.92364 15.8797 0 
111 1 0.46 70.0 9.38 15.886 0 
303 1 0.46 70.0 9.83465 15.8894 0 
39 1 0.46 70.0 10.289 15.8864 0 
80 1 0.46 70.0 10.7434 15.8792 0 
160 1 0.46 70.0 11.1994 15.8652 0 
258 1 0.46 70.0 11.6555 15.8434 0 
140 1 0.46 70.0 12.1098 15.7922 0 
233 1 0.46 70.0 12.5677 15.777 0 
141 1 0.46 70.0 13.0213 15.6504 0 
75 1 0.46 70.0 13.5319 15.577 0 
10 1 0.46 70.0 5.06913 16.3397 0 
202 1 0.46 70.0 5.62839 16.4272 0 
191 1 0.46 70.0 6.41438 16.037 0 
175 1 0.46 70.0 6.88563 16.0985 0 
230 1 0.46 70.0 7.33532 16.1915 0 
76 1 0.46 70.0 7.793 16.2177 0 
234 1 0.46 70.0 8.24754 16.2604 0 
179 1 0.46 70.0 8.70271 16.2799 0 
123 1 0.46 70.0 9.15632 16.2872 0 
192 1 0.46 70.0 9.60706 16.2908 0 
153 1 0.46 70.0 10.0572 16.2919 0 
300 1 0.46 70.0 10.5079 16.2899 0 
90 1 0.46 70.0 10.9595 16.2834 0 
38 1 0.46 70.0 11.4133 16.2709 0 
115 1 0.46 70.0 11.8695 16.2496 0 
221 1 0.46 70.0 12.3268 16.2204 0 
289 1 0.46 70.0 12.7989 16.184 0 
94 1 0.46 70.0 13.2685 16.0907 0 
163 1 0.46 70.0 13.7759 16.0591 0 
27 1 0.46 70.0 14.3033 16.0379 0 
211 1 0.46 70.0 14.8767 16.0301 0 
263 1 0.46 70.0 4.78331 16.8613 0 
18 1 0.46 70.0 6.14849 16.4871 0 
171 1 0.46 70.0 6.64353 16.5286 0 
93 1 0.46 70.0 7.10908 16.595 0 
286 1 0.46 70.0 7.57088 16.628 0 
114 1 0.46 70.0 8.02635 16.6588 0 
52 1 0.46 70.0 8.48071 16.6768 0 
162 1 0.46 70.0 8.9327 16.684 0 
63 1 0.46 70.0 9.38196 16.6884 0 
208 1 0.46 70.0 9.83076 16.6909 0 
284 1 0.46 70.0 10.2792 16.6911 0 
17 1 0.46 70.0 10.7276 16.6886 0 
287 1 0.46 70.0 11.178 16.6827 0 
267 1 0.46 70.0 11.6312 16.6711 0 
156 1 0.46 70.0 12.087 16.6522 0 
103 1 0.46 70.0 12.5455 16.6251 0 
222 1 0.46 70.0 13.0188 16.5899 0 
51 1 0.46 70.0 13.4999 16.5278 0 
265 1 0.46 70.0 14.0246 16.5409 0 
216 1 0.46 70.0 14.5645 16.5555 0 
241 1 0.46 70.0 15.1726 16.6223 0 
199 1 0.46 70.0 5.3628 16.8993 0 
78 1 0.46 70.0 5.89209 16.9312 0 
6 1 0.46 70.0 6.40422 16.9482 0 
5 1 0.46 70.0 6.8821 16.9951 0 
291 1 0.46 70.0 7.34657 17.0278 0 
294 1 0.46 70.0 7.80314 17.0545 0 
20 1 0.46 70.0 8.25754 17.07 0 
205 1 0.46 70.0 8.70942 17.0776 0 
206 1 0.46 70.0 9.15888 17.0834 0 
46 1 0.46 70.0 9.60623 17.0874 0 
248 1 0.46 70.0 10.0535 17.0888 0 
55 1 0.46 70.0 10.5009 17.0874 0 
25 1 0.46 70.0 10.9486 17.0833 0 
134 1 0.46 70.0 11.3986 17.0774 0 
119 1 0.46 70.0 11.8514 17.0672 0 
3 1 0.46 70.0 12.3072 17.0507 0 
12 1 0.46 70.0 12.7658 17.027 0 
238 1 0.46 70.0 13.2375 16.9943 0 
197 1 0.46 70.0 13.7253 16.9556 0 
243 1 0.46 70.0 14.2766 17.0253 0 
184 1 0.46 70.0 14.8107 17.0636 0 
31 1 0.46 70.0 15.5091 17.1907 0 
34 1 0.46 70.0 4.49272 17.3786 0 
264 1 0.46 70.0 5.09558 17.3731 0 
28 1 0.46 70.0 5.63344 17.3794 0 
85 1 0.46 70.0 6.16811 17.3609 0 
133 1 0.46 70.0 5.93662 17.7678 0 
48 1 0.46 70.0 6.65488 17.3945 0 
24 1 0.46 70.0 7.12112 17.4249 0 
196 1 0.46 70.0 7.57857 17.4474 0 
295 1 0.46 70.0 8.03345 17.4602 0 
224 1 0.46 70.0 8.48584 17.4685 0 
220 1 0.46 70.0 8.93559 17.4755 0 
280 1 0.46 70.0 9.3826 17.4811 0 
172 1 0.46 70.0 9.829 17.4841 0 
23 1 0.46 70.0 10.2752 17.484 0 
285 1 0.46 70.0 10.7214 17.4807 0 
36 1 0.46 70.0 11.1695 17.4754 0 
29 1 0.46 70.0 11.6197 17.4688 0 
257 1 0.46 70.0 12.0722 17.4603 0 
144 1 0.46 70.0 12.5277 17.4468 0 
142 1 0.46 70.0 12.9862 17.4277 0 
4 1 0.46 70.0 13.4532 17.4001 0 
178 1 0.46 70.0 13.9389 17.3735 0 
279 1 0.46 70.0 14.5376 17.5325 0 
143 1 0.46 70.0 15.073 17.5372 0 
33 1 0.46 70.0 4.15434 17.8998 0 
1 1 0.46 70.0 4.82199 17.8512 0 
173 1 0.46 70.0 5.3649 17.8407 0 
159 1 0.46 70.0 5.71317 18.1697 0 
161 1 0.46 70.0 6.20188 18.1932 0 
275 1 0.46 70.0 6.42776 17.7935 0 
86 1 0.46 70.0 6.89517 17.8205 0 
276 1 0.46 70.0 6.66845 18.2155 0 
107 1 0.46 70.0 7.35342 17.8384 0 
21 1 0.46 70.0 7.80888 17.8487 0 
131 1 0.46 70.0 8.26204 17.8574 0 
231 1 0.46 70.0 8.71255 17.865 0 
77 1 0.46 70.0 9.1604 17.8717 0 
237 1 0.46 70.0 9.6058 17.8767 0 
108 1 0.46 70.0 10.0511 17.8782 0 
236 1 0.46 70.0 10.4966 17.8762 0 
148 1 0.46 70.0 10.9426 17.8713 0 
200 1 0.46 70.0 11.391 17.8652 0 
203 1 0.46 70.0 11.842 17.8581 0 
232 1 0.46 70.0 12.2949 17.8503 0 
219 1 0.46 70.0 12.7499 17.8407 0 
189 1 0.46 70.0 13.2075 17.8277 0 
209 1 0.46 70.0 13.6667 17.8074 0 
125 1 0.46 70.0 14.1386 17.7865 0 
83 1 0.46 70.0 13.9088 18.209 0 
254 1 0.46 70.0 14.4167 18.1513 0 
96 1 0.46 70.0 14.8909 18.0177 0 
122 1 0.46 70.0 15.503 17.9108 0 
281 1 0.46 70.0 4.52462 18.3202 0 
227 1 0.46 70.0 5.07934 18.3219 0 
37 1 0.46 70.0 5.48767 18.5689 0 
146 1 0.46 70.0 5.97377 18.5926 0 
183 1 0.46 70.0 6.44038 18.6106 0 
239 1 0.46 70.0 6.89987 18.6172 0 
16 1 0.46 70.0 7.12712 18.2279 0 
15 1 0.46 70.0 7.35727 18.6244 0 
95 1 0.46 70.0 7.58342 18.2365 0 
124 1 0.46 70.0 7.81218 18.6315 0 
245 1 0.46 70.0 8.03748 18.2448 0 
292 1 0.46 70.0 8.26457 18.6385 0 
130 1 0.46 70.0 8.48889 18.2524 0 
72 1 0.46 70.0 8.71429 18.6453 0 
235 1 0.46 70.0 8.93745 18.2595 0 
223 1 0.46 70.0 9.16122 18.6522 0 
226 1 0.46 70.0 9.38293 18.2661 0 
177 1 0.46 70.0 9.60536 18.6581 0 
165 1 0.46 70.0 9.82781 18.2697 0 
41 1 0.46 70.0 10.0497 18.6597 0 
45 1 0.46 70.0 10.2725 18.2693 0 
213 1 0.46 70.0 10.4941 18.657 0 
301 1 0.46 70.0 10.7171 18.2651 0 
98 1 0.46 70.0 10.9391 18.6513 0 
218 1 0.46 70.0 11.1642 18.2594 0 
252 1 0.46 70.0 11.3872 18.6454 0 
261 1 0.46 70.0 11.6138 18.2531 0 
283 1 0.46 70.0 11.8381 18.6395 0 
228 1 0.46 70.0 12.0659 18.2463 0 
70 1 0.46 70.0 12.2917 18.6333 0 
181 1 0.46 70.0 12.5207 18.2388 0 
101 1 0.46 70.0 12.748 18.627 0 
128 1 0.46 70.0 12.9777 18.2312 0 
212 1 0.46 70.0 13.2072 18.6216 0 
201 1 0.46 70.0 13.4371 18.2241 0 
61 1 0.46 70.0 13.6759 18.6156 0 
259 1 0.46 70.0 14.1721 18.5871 0 
174 1 0.46 70.0 14.6961 18.5325 0 
190 1 0.46 70.0 15.2346 18.4352 0 
47 1 0.46 70.0 15.8545 18.4157 0 
42 1 0.46 70.0 4.08487 18.7202 0 
164 1 0.46 70.0 4.73618 18.794 0 
88 1 0.46 70.0 5.21067 18.9364 0 
255 1 0.46 70.0 5.7237 18.9896 0 
169 1 0.46 70.0 6.20499 19.0035 0 
19 1 0.46 70.0 6.67125 19.0074 0 
154 1 0.46 70.0 7.1299 19.0125 0 
118 1 0.46 70.0 7.58591 19.0183 0 
207 1 0.46 70.0 8.03926 19.0241 0 
297 1 0.46 70.0 8.48992 19.0299 0 
117 1 0.46 70.0 8.93779 19.0362 0 
22 1 0.46 70.0 9.38245 19.0432 0 
277 1 0.46 70.0 9.82685 19.0471 0 
92 1 0.46 70.0 10.2713 19.0464 0 
79 1 0.46 70.0 10.7153 19.0413 0 
170 1 0.46 70.0 11.1621 19.0355 0 
138 1 0.46 70.0 11.6116 19.0304 0 
71 1 0.46 70.0 12.0639 19.0252 0 
100 1 0.46 70.0 12.5189 19.0201 0 
296 1 0.46 70.0 12.9767 19.0151 0 
268 1 0.46 70.0 13.4416 19.0105 0 
127 1 0.46 70.0 13.9263 18.9996 0 
157 1 0.46 70.0 14.4359 18.9688 0 
81 1 0.46 70.0 14.9757 18.9248 0 
106 1 0.46 70.0 15.5492 18.9052 0 
58 1 0.46 70.0 4.38707 19.2137 0 
278 1 0.46 70.0 4.92181 19.33 0 
116 1 0.46 70.0 5.45143 19.3731 0 
251 1 0.46 70.0 5.96027 19.3924 0 
132 1 0.46 70.0 6.43963 19.3976 0 
271 1 0.46 70.0 6.90117 19.4013 0 
168 1 0.46 70.0 7.35843 19.4056 0 
109 1 0.46 70.0 7.81293 19.41 0 
30 1 0.46 70.0 8.26467 19.4145 0 
9 1 0.46 70.0 8.7137 19.4193 0 
13 1 0.46 70.0 9.1602 19.4251 0 
69 1 0.46 70.0 9.60411 19.4311 0 
185 1 0.46 70.0 10.0491 19.4323 0 
166 1 0.46 70.0 10.4942 19.4295 0 
49 1 0.46 70.0 10.939 19.4236 0 
139 1 0.46 70.0 11.3868 19.4191 0 
136 1 0.46 70.0 11.8376 19.4149 0 
269 1 0.46 70.0 12.2914 19.4109 0 
110 1 0.46 70.0 12.7481 19.4069 0 
26 1 0.46 70.0 13.208 19.4027 0 
215 1 0.46 70.0 13.684 19.3957 0 
68 1 0.46 70.0 14.1789 19.3831 0 
89 1 0.46 70.0 14.6969 19.3621 0 
99 1 0.46 70.0 15.2428 19.3446 0 
193 1 0.46 70.0 15.9674 19.3179 0 
194 1 0.46 70.0 4.03049 19.646 0 
180 1 0.46 70.0 4.62481 19.7402 0 
246 1 0.46 70.0 5.18452 19.7717 0 
57 1 0.46 70.0 5.70776 19.7773 0 
210 1 0.46 70.0 6.19932 19.7845 0 
155 1 0.46 70.0 6.67066 19.7905 0 
150 1 0.46 70.0 7.1295 19.7936 0 
65 1 0.46 70.0 7.58534 19.7967 0 
105 1 0.46 70.0 8.03827 19.7998 0 
225 1 0.46 70.0 8.4883 19.803 0 
302 1 0.46 70.0 8.93544 19.8066 0 
11 1 0.46 70.0 9.38 19.812 0 
293 1 0.46 70.0 9.82591 19.8141 0 
204 1 0.46 70.0 10.272 19.8137 0 
214 1 0.46 70.0 10.7169 19.8095 0 
262 1 0.46 70.0 11.1635 19.8058 0 
176 1 0.46 70.0 11.6128 19.8028 0 
102 1 0.46 70.0 12.0651 19.7998 0 
270 1 0.46 70.0 12.5204 19.7969 0 
299 1 0.46 70.0 12.9787 19.7939 0 
104 1 0.46 70.0 13.447 19.7876 0 
198 1 0.46 70.0 13.9292 19.7812 0 
145 1 0.46 70.0 14.4294 19.7752 0 
272 1 0.46 70.0 14.9618 19.771 0 
249 1 0.46 70.0 15.5695 19.7314 0 
