# LAMMPS data file for rigid bodies

303 atoms

1 atom types

0.0 	 20.0 	 xlo xhi 
0.0 	 20.0 	 ylo yhi 
-1.0 	 1.0 	 zlo zhi 

Atoms

224 1 0.46 70.0 9.23719 13.5492 0 
197 1 0.46 70.0 9.84942 13.5682 0 
84 1 0.46 70.0 10.4522 13.5671 0 
290 1 0.46 70.0 11.0567 13.5914 0 
180 1 0.46 70.0 11.7077 13.7266 0 
191 1 0.46 70.0 8.00653 13.8225 0 
239 1 0.46 70.0 8.6028 13.8448 0 
259 1 0.46 70.0 9.08984 14.0961 0 
139 1 0.46 70.0 9.62126 14.093 0 
38 1 0.46 70.0 10.157 14.0954 0 
302 1 0.46 70.0 10.6963 14.0931 0 
103 1 0.46 70.0 11.259 14.1316 0 
192 1 0.46 70.0 12.4056 14.1037 0 
91 1 0.46 70.0 7.24822 14.4316 0 
289 1 0.46 70.0 7.85338 14.3628 0 
61 1 0.46 70.0 8.39841 14.3997 0 
21 1 0.46 70.0 8.88247 14.5585 0 
223 1 0.46 70.0 9.39106 14.5717 0 
47 1 0.46 70.0 9.89625 14.5768 0 
263 1 0.46 70.0 10.4013 14.5749 0 
178 1 0.46 70.0 10.909 14.5726 0 
52 1 0.46 70.0 11.4393 14.6216 0 
42 1 0.46 70.0 11.855 14.2817 0 
16 1 0.46 70.0 13.0385 14.4158 0 
109 1 0.46 70.0 6.86291 14.8777 0 
187 1 0.46 70.0 7.65813 14.8456 0 
56 1 0.46 70.0 8.17493 14.8952 0 
2 1 0.46 70.0 8.66083 14.9881 0 
95 1 0.46 70.0 9.16019 15.0138 0 
129 1 0.46 70.0 9.64606 15.0273 0 
241 1 0.46 70.0 10.1306 15.0306 0 
136 1 0.46 70.0 10.6148 15.0266 0 
72 1 0.46 70.0 11.1006 15.0263 0 
293 1 0.46 70.0 11.6112 15.0791 0 
65 1 0.46 70.0 12.0136 14.788 0 
111 1 0.46 70.0 12.5218 14.6762 0 
24 1 0.46 70.0 13.1641 14.9924 0 
271 1 0.46 70.0 13.7031 14.7995 0 
156 1 0.46 70.0 6.37161 15.1947 0 
261 1 0.46 70.0 6.86777 15.4853 0 
278 1 0.46 70.0 7.32177 15.2024 0 
195 1 0.46 70.0 7.8826 15.3317 0 
266 1 0.46 70.0 8.40022 15.3896 0 
48 1 0.46 70.0 8.91262 15.4248 0 
300 1 0.46 70.0 9.39719 15.4511 0 
225 1 0.46 70.0 9.87293 15.4625 0 
210 1 0.46 70.0 10.342 15.4652 0 
66 1 0.46 70.0 10.8066 15.4602 0 
285 1 0.46 70.0 11.278 15.459 0 
231 1 0.46 70.0 11.7698 15.5122 0 
43 1 0.46 70.0 12.1898 15.2731 0 
238 1 0.46 70.0 12.6768 15.1748 0 
234 1 0.46 70.0 13.0855 15.5451 0 
283 1 0.46 70.0 13.5996 15.4071 0 
112 1 0.46 70.0 14.1666 15.2751 0 
9 1 0.46 70.0 5.51374 15.9815 0 
90 1 0.46 70.0 5.95647 15.5944 0 
194 1 0.46 70.0 6.48226 15.8344 0 
198 1 0.46 70.0 7.35621 15.6917 0 
298 1 0.46 70.0 7.81668 15.7964 0 
273 1 0.46 70.0 8.27492 15.8305 0 
243 1 0.46 70.0 8.73315 15.8459 0 
41 1 0.46 70.0 9.1915 15.862 0 
54 1 0.46 70.0 9.64935 15.8753 0 
5 1 0.46 70.0 10.1073 15.8831 0 
233 1 0.46 70.0 10.5651 15.8816 0 
19 1 0.46 70.0 11.0229 15.8736 0 
169 1 0.46 70.0 11.4852 15.8694 0 
193 1 0.46 70.0 12.1287 15.7954 0 
171 1 0.46 70.0 12.5918 15.6732 0 
237 1 0.46 70.0 13.4922 15.9451 0 
141 1 0.46 70.0 13.9988 15.8541 0 
265 1 0.46 70.0 14.5672 15.7667 0 
102 1 0.46 70.0 5.1129 16.4175 0 
18 1 0.46 70.0 6.05251 16.1857 0 
40 1 0.46 70.0 6.54334 16.3561 0 
108 1 0.46 70.0 6.99692 16.0315 0 
132 1 0.46 70.0 7.5198 16.17 0 
150 1 0.46 70.0 8.03727 16.2241 0 
203 1 0.46 70.0 8.51697 16.2504 0 
279 1 0.46 70.0 8.97538 16.2663 0 
121 1 0.46 70.0 9.43048 16.2785 0 
32 1 0.46 70.0 9.88432 16.2851 0 
288 1 0.46 70.0 10.3368 16.287 0 
76 1 0.46 70.0 10.7876 16.2833 0 
159 1 0.46 70.0 11.2386 16.278 0 
67 1 0.46 70.0 11.6908 16.2706 0 
94 1 0.46 70.0 12.1367 16.2496 0 
131 1 0.46 70.0 12.5798 16.1543 0 
220 1 0.46 70.0 13.0251 16.0481 0 
267 1 0.46 70.0 13.768 16.3859 0 
177 1 0.46 70.0 14.2876 16.3258 0 
189 1 0.46 70.0 14.8671 16.2803 0 
130 1 0.46 70.0 4.62536 16.8722 0 
226 1 0.46 70.0 5.67853 16.5801 0 
160 1 0.46 70.0 6.19953 16.7295 0 
96 1 0.46 70.0 6.99044 16.5092 0 
92 1 0.46 70.0 6.68942 16.8851 0 
118 1 0.46 70.0 7.43328 16.6175 0 
145 1 0.46 70.0 7.88386 16.6495 0 
250 1 0.46 70.0 8.33428 16.6646 0 
212 1 0.46 70.0 8.78361 16.6771 0 
175 1 0.46 70.0 9.23105 16.686 0 
50 1 0.46 70.0 9.67697 16.6899 0 
200 1 0.46 70.0 10.123 16.6896 0 
173 1 0.46 70.0 10.5699 16.6856 0 
75 1 0.46 70.0 11.0179 16.68 0 
275 1 0.46 70.0 11.469 16.6732 0 
68 1 0.46 70.0 11.9233 16.6645 0 
215 1 0.46 70.0 12.3803 16.6349 0 
106 1 0.46 70.0 12.8321 16.5591 0 
34 1 0.46 70.0 13.2869 16.4675 0 
294 1 0.46 70.0 13.5275 16.8858 0 
209 1 0.46 70.0 14.0185 16.8253 0 
71 1 0.46 70.0 14.5527 16.7947 0 
27 1 0.46 70.0 15.1532 16.7835 0 
196 1 0.46 70.0 5.18094 16.9911 0 
22 1 0.46 70.0 5.67097 17.1017 0 
297 1 0.46 70.0 6.12323 17.2077 0 
8 1 0.46 70.0 6.56298 17.3271 0 
256 1 0.46 70.0 7.17107 16.9915 0 
228 1 0.46 70.0 7.65075 17.0401 0 
152 1 0.46 70.0 8.10937 17.0589 0 
280 1 0.46 70.0 8.56333 17.0725 0 
49 1 0.46 70.0 9.01334 17.0823 0 
204 1 0.46 70.0 9.45989 17.0871 0 
101 1 0.46 70.0 9.90573 17.0883 0 
88 1 0.46 70.0 10.3517 17.086 0 
51 1 0.46 70.0 10.798 17.0806 0 
58 1 0.46 70.0 11.2467 17.0737 0 
254 1 0.46 70.0 11.6987 17.0654 0 
291 1 0.46 70.0 12.1539 17.0553 0 
186 1 0.46 70.0 12.6108 17.027 0 
36 1 0.46 70.0 13.0652 16.9633 0 
230 1 0.46 70.0 13.764 17.3006 0 
158 1 0.46 70.0 14.2648 17.2587 0 
244 1 0.46 70.0 14.8184 17.2575 0 
232 1 0.46 70.0 15.4498 17.2859 0 
269 1 0.46 70.0 4.26795 17.4432 0 
182 1 0.46 70.0 4.85894 17.4674 0 
202 1 0.46 70.0 5.38009 17.5447 0 
124 1 0.46 70.0 5.86447 17.6283 0 
140 1 0.46 70.0 6.31946 17.7239 0 
6 1 0.46 70.0 7.00641 17.4133 0 
100 1 0.46 70.0 7.4557 17.4454 0 
299 1 0.46 70.0 7.90557 17.459 0 
295 1 0.46 70.0 8.35357 17.4687 0 
17 1 0.46 70.0 8.79985 17.4763 0 
206 1 0.46 70.0 9.24487 17.4812 0 
242 1 0.46 70.0 9.68898 17.4841 0 
115 1 0.46 70.0 10.1337 17.4836 0 
114 1 0.46 70.0 10.5791 17.4795 0 
7 1 0.46 70.0 11.0253 17.4727 0 
252 1 0.46 70.0 11.4746 17.4646 0 
163 1 0.46 70.0 11.927 17.4554 0 
74 1 0.46 70.0 12.3824 17.4452 0 
185 1 0.46 70.0 12.8395 17.4197 0 
258 1 0.46 70.0 13.2954 17.364 0 
257 1 0.46 70.0 13.5246 17.7633 0 
284 1 0.46 70.0 13.999 17.7131 0 
211 1 0.46 70.0 14.5087 17.6877 0 
14 1 0.46 70.0 15.0873 17.7207 0 
105 1 0.46 70.0 4.53889 17.9638 0 
23 1 0.46 70.0 5.09555 17.9921 0 
146 1 0.46 70.0 5.60686 18.047 0 
120 1 0.46 70.0 6.0824 18.124 0 
127 1 0.46 70.0 6.5384 18.1937 0 
117 1 0.46 70.0 6.77085 17.8024 0 
229 1 0.46 70.0 7.22674 17.8353 0 
147 1 0.46 70.0 7.68077 17.8483 0 
110 1 0.46 70.0 8.13198 17.8585 0 
199 1 0.46 70.0 8.58073 17.8666 0 
149 1 0.46 70.0 9.02723 17.8727 0 
128 1 0.46 70.0 9.47135 17.8771 0 
107 1 0.46 70.0 9.91542 17.8785 0 
172 1 0.46 70.0 10.3597 17.876 0 
133 1 0.46 70.0 10.8043 17.8699 0 
4 1 0.46 70.0 11.2515 17.8621 0 
179 1 0.46 70.0 11.7016 17.8535 0 
28 1 0.46 70.0 12.1545 17.8442 0 
201 1 0.46 70.0 12.6102 17.8342 0 
63 1 0.46 70.0 13.0677 17.8126 0 
78 1 0.46 70.0 13.2962 18.2058 0 
276 1 0.46 70.0 13.754 18.163 0 
31 1 0.46 70.0 14.2324 18.1258 0 
218 1 0.46 70.0 14.7476 18.1151 0 
98 1 0.46 70.0 15.3382 18.2035 0 
296 1 0.46 70.0 15.7517 17.8173 0 
190 1 0.46 70.0 4.1836 18.4279 0 
246 1 0.46 70.0 4.80461 18.4483 0 
79 1 0.46 70.0 5.34416 18.4661 0 
60 1 0.46 70.0 5.837 18.5229 0 
168 1 0.46 70.0 6.30444 18.5854 0 
253 1 0.46 70.0 6.9966 18.2233 0 
134 1 0.46 70.0 6.76666 18.6116 0 
162 1 0.46 70.0 7.22515 18.6219 0 
251 1 0.46 70.0 7.45336 18.2354 0 
176 1 0.46 70.0 7.90745 18.2458 0 
151 1 0.46 70.0 7.68112 18.6316 0 
166 1 0.46 70.0 8.35872 18.2542 0 
164 1 0.46 70.0 8.13448 18.6399 0 
62 1 0.46 70.0 8.80735 18.2611 0 
208 1 0.46 70.0 8.58505 18.6469 0 
85 1 0.46 70.0 9.25334 18.2666 0 
69 1 0.46 70.0 9.03273 18.6529 0 
122 1 0.46 70.0 9.69693 18.2703 0 
81 1 0.46 70.0 9.47723 18.6584 0 
15 1 0.46 70.0 10.1407 18.2698 0 
93 1 0.46 70.0 9.92117 18.6605 0 
77 1 0.46 70.0 10.5848 18.2653 0 
25 1 0.46 70.0 10.3649 18.6581 0 
262 1 0.46 70.0 11.0297 18.2577 0 
33 1 0.46 70.0 10.8085 18.6513 0 
26 1 0.46 70.0 11.4776 18.2496 0 
59 1 0.46 70.0 11.2548 18.6435 0 
247 1 0.46 70.0 11.9284 18.2412 0 
3 1 0.46 70.0 11.7038 18.6359 0 
221 1 0.46 70.0 12.3819 18.2324 0 
236 1 0.46 70.0 12.1555 18.6283 0 
301 1 0.46 70.0 12.8381 18.2229 0 
264 1 0.46 70.0 12.6098 18.6204 0 
55 1 0.46 70.0 13.0665 18.6119 0 
235 1 0.46 70.0 13.5251 18.5998 0 
143 1 0.46 70.0 13.9839 18.566 0 
35 1 0.46 70.0 14.4626 18.5422 0 
216 1 0.46 70.0 14.9711 18.5512 0 
116 1 0.46 70.0 15.8398 18.4794 0 
245 1 0.46 70.0 3.98484 19.0467 0 
57 1 0.46 70.0 4.52069 18.9152 0 
20 1 0.46 70.0 5.08596 18.8927 0 
44 1 0.46 70.0 5.58938 18.9269 0 
170 1 0.46 70.0 6.06701 18.9765 0 
219 1 0.46 70.0 6.5364 19.001 0 
137 1 0.46 70.0 6.99634 19.0091 0 
123 1 0.46 70.0 7.45374 19.0172 0 
148 1 0.46 70.0 7.90867 19.0246 0 
155 1 0.46 70.0 8.36101 19.0311 0 
277 1 0.46 70.0 8.81059 19.0369 0 
73 1 0.46 70.0 9.2574 19.0426 0 
119 1 0.46 70.0 9.70128 19.0474 0 
207 1 0.46 70.0 10.1454 19.0475 0 
165 1 0.46 70.0 10.5894 19.043 0 
260 1 0.46 70.0 11.0336 19.0352 0 
82 1 0.46 70.0 11.4808 19.0283 0 
64 1 0.46 70.0 11.9308 19.0219 0 
45 1 0.46 70.0 12.3834 19.0154 0 
87 1 0.46 70.0 12.8387 19.0088 0 
53 1 0.46 70.0 13.2967 19.0015 0 
138 1 0.46 70.0 13.7573 18.9941 0 
97 1 0.46 70.0 14.2272 18.9715 0 
268 1 0.46 70.0 14.723 18.9568 0 
10 1 0.46 70.0 15.3727 18.8359 0 
83 1 0.46 70.0 16.0545 19.0492 0 
13 1 0.46 70.0 4.82477 19.3243 0 
249 1 0.46 70.0 5.34052 19.3428 0 
174 1 0.46 70.0 5.82769 19.3686 0 
125 1 0.46 70.0 6.30348 19.3909 0 
154 1 0.46 70.0 6.76712 19.3975 0 
217 1 0.46 70.0 7.22545 19.4038 0 
282 1 0.46 70.0 7.68162 19.4097 0 
255 1 0.46 70.0 8.13537 19.415 0 
37 1 0.46 70.0 8.58645 19.4198 0 
292 1 0.46 70.0 9.03464 19.4245 0 
222 1 0.46 70.0 9.47968 19.4304 0 
272 1 0.46 70.0 9.92479 19.4329 0 
70 1 0.46 70.0 10.3697 19.4313 0 
281 1 0.46 70.0 10.8132 19.4247 0 
181 1 0.46 70.0 11.2591 19.4184 0 
214 1 0.46 70.0 11.7075 19.4132 0 
142 1 0.46 70.0 12.1585 19.4083 0 
274 1 0.46 70.0 12.6123 19.4032 0 
286 1 0.46 70.0 13.0687 19.398 0 
184 1 0.46 70.0 13.5278 19.3925 0 
126 1 0.46 70.0 13.9969 19.386 0 
99 1 0.46 70.0 14.4883 19.3748 0 
144 1 0.46 70.0 15.0239 19.3207 0 
240 1 0.46 70.0 15.5519 19.3108 0 
1 1 0.46 70.0 4.00677 19.6301 0 
153 1 0.46 70.0 4.54053 19.7289 0 
89 1 0.46 70.0 5.08835 19.7701 0 
188 1 0.46 70.0 5.59014 19.7743 0 
135 1 0.46 70.0 6.06765 19.7814 0 
183 1 0.46 70.0 6.53601 19.787 0 
227 1 0.46 70.0 6.99578 19.7918 0 
287 1 0.46 70.0 7.45328 19.7957 0 
167 1 0.46 70.0 7.90842 19.7995 0 
213 1 0.46 70.0 8.36102 19.803 0 
157 1 0.46 70.0 8.8109 19.8063 0 
104 1 0.46 70.0 9.25809 19.81 0 
303 1 0.46 70.0 9.70332 19.8141 0 
30 1 0.46 70.0 10.1496 19.8143 0 
11 1 0.46 70.0 10.5955 19.8123 0 
113 1 0.46 70.0 11.0394 19.8063 0 
161 1 0.46 70.0 11.4857 19.8025 0 
46 1 0.46 70.0 11.935 19.7991 0 
39 1 0.46 70.0 12.3871 19.7956 0 
12 1 0.46 70.0 12.842 19.7921 0 
205 1 0.46 70.0 13.2997 19.7885 0 
270 1 0.46 70.0 13.7625 19.7835 0 
80 1 0.46 70.0 14.2412 19.778 0 
29 1 0.46 70.0 14.7527 19.7712 0 
86 1 0.46 70.0 15.2843 19.759 0 
248 1 0.46 70.0 15.9299 19.6903 0 
