# LAMMPS data file for rigid bodies

303 atoms

1 atom types

0.0 	 20.0 	 xlo xhi 
0.0 	 20.0 	 ylo yhi 
-1.0 	 1.0 	 zlo zhi 

Atoms

52 1 0.46 70.0 8.75215 13.6023 0 
239 1 0.46 70.0 9.33417 13.3461 0 
207 1 0.46 70.0 9.73032 13.7519 0 
140 1 0.46 70.0 10.2121 13.4167 0 
165 1 0.46 70.0 11.0461 13.4823 0 
147 1 0.46 70.0 12.0062 13.6749 0 
119 1 0.46 70.0 7.66923 14.1381 0 
125 1 0.46 70.0 8.20038 13.855 0 
56 1 0.46 70.0 8.7162 14.192 0 
77 1 0.46 70.0 9.21772 13.969 0 
2 1 0.46 70.0 10.1349 14.0947 0 
183 1 0.46 70.0 10.6036 13.8372 0 
245 1 0.46 70.0 11.0133 14.1729 0 
86 1 0.46 70.0 11.4799 13.901 0 
75 1 0.46 70.0 12.5026 14.0786 0 
230 1 0.46 70.0 6.76371 14.3163 0 
265 1 0.46 70.0 7.26813 14.5727 0 
252 1 0.46 70.0 8.22889 14.4297 0 
247 1 0.46 70.0 9.17389 14.5108 0 
238 1 0.46 70.0 9.64774 14.3095 0 
244 1 0.46 70.0 10.0694 14.6209 0 
64 1 0.46 70.0 10.5462 14.4103 0 
87 1 0.46 70.0 11.4552 14.4661 0 
128 1 0.46 70.0 11.9611 14.2893 0 
222 1 0.46 70.0 12.8932 14.5228 0 
248 1 0.46 70.0 6.26469 14.7797 0 
175 1 0.46 70.0 6.81092 14.9554 0 
59 1 0.46 70.0 7.77883 14.7188 0 
18 1 0.46 70.0 8.25833 14.9593 0 
143 1 0.46 70.0 8.70868 14.7226 0 
23 1 0.46 70.0 9.14654 15.0151 0 
277 1 0.46 70.0 9.60076 14.8198 0 
42 1 0.46 70.0 10.0138 15.1097 0 
170 1 0.46 70.0 10.4825 14.9128 0 
73 1 0.46 70.0 10.96 14.703 0 
184 1 0.46 70.0 11.3852 14.9601 0 
162 1 0.46 70.0 11.8773 14.8294 0 
271 1 0.46 70.0 12.377 14.6961 0 
223 1 0.46 70.0 12.776 15.1041 0 
153 1 0.46 70.0 13.4342 14.6586 0 
229 1 0.46 70.0 13.8727 15.0652 0 
144 1 0.46 70.0 5.75185 15.1889 0 
38 1 0.46 70.0 6.33893 15.3642 0 
94 1 0.46 70.0 6.85991 15.4964 0 
49 1 0.46 70.0 7.31937 15.1223 0 
85 1 0.46 70.0 7.80945 15.226 0 
274 1 0.46 70.0 8.26479 15.4522 0 
61 1 0.46 70.0 8.70278 15.2233 0 
286 1 0.46 70.0 9.12162 15.4961 0 
57 1 0.46 70.0 9.55824 15.3023 0 
34 1 0.46 70.0 10.4123 15.3862 0 
224 1 0.46 70.0 10.8847 15.1892 0 
110 1 0.46 70.0 11.3035 15.4125 0 
145 1 0.46 70.0 11.7877 15.3185 0 
101 1 0.46 70.0 12.2751 15.2281 0 
236 1 0.46 70.0 13.2868 15.2017 0 
288 1 0.46 70.0 14.2709 15.5095 0 
134 1 0.46 70.0 5.85505 15.7509 0 
1 1 0.46 70.0 6.39758 15.8926 0 
290 1 0.46 70.0 7.34844 15.628 0 
126 1 0.46 70.0 7.82274 15.6977 0 
266 1 0.46 70.0 8.26362 15.9198 0 
282 1 0.46 70.0 8.69275 15.6985 0 
217 1 0.46 70.0 9.09699 15.9609 0 
35 1 0.46 70.0 9.51486 15.7686 0 
285 1 0.46 70.0 9.95264 15.5761 0 
58 1 0.46 70.0 10.3317 15.8391 0 
209 1 0.46 70.0 10.799 15.6476 0 
13 1 0.46 70.0 11.2076 15.8563 0 
203 1 0.46 70.0 11.678 15.7729 0 
206 1 0.46 70.0 12.1535 15.7165 0 
199 1 0.46 70.0 12.6426 15.6266 0 
51 1 0.46 70.0 13.1347 15.6857 0 
27 1 0.46 70.0 13.6786 15.6112 0 
240 1 0.46 70.0 14.6344 15.9804 0 
45 1 0.46 70.0 5.37187 16.101 0 
262 1 0.46 70.0 5.94022 16.2823 0 
71 1 0.46 70.0 6.45018 16.3907 0 
205 1 0.46 70.0 6.89882 15.9993 0 
159 1 0.46 70.0 7.37373 16.1047 0 
127 1 0.46 70.0 7.83369 16.1554 0 
97 1 0.46 70.0 8.2566 16.3782 0 
216 1 0.46 70.0 8.67763 16.1573 0 
141 1 0.46 70.0 9.06655 16.4177 0 
98 1 0.46 70.0 9.48118 16.2271 0 
96 1 0.46 70.0 9.89201 16.0318 0 
261 1 0.46 70.0 10.2623 16.292 0 
298 1 0.46 70.0 10.7096 16.0966 0 
29 1 0.46 70.0 11.1189 16.295 0 
91 1 0.46 70.0 11.5708 16.2173 0 
150 1 0.46 70.0 12.0281 16.1781 0 
158 1 0.46 70.0 12.4968 16.108 0 
26 1 0.46 70.0 12.9684 16.139 0 
211 1 0.46 70.0 13.4888 16.0983 0 
131 1 0.46 70.0 14.0341 16.0442 0 
7 1 0.46 70.0 4.96989 16.579 0 
129 1 0.46 70.0 5.53712 16.6825 0 
260 1 0.46 70.0 6.04852 16.7908 0 
112 1 0.46 70.0 6.52474 16.8708 0 
115 1 0.46 70.0 6.92877 16.4783 0 
186 1 0.46 70.0 7.38498 16.5638 0 
291 1 0.46 70.0 7.84012 16.6096 0 
196 1 0.46 70.0 8.25248 16.8348 0 
132 1 0.46 70.0 8.65228 16.6125 0 
237 1 0.46 70.0 9.02936 16.8701 0 
268 1 0.46 70.0 9.4443 16.6798 0 
264 1 0.46 70.0 9.85714 16.5085 0 
276 1 0.46 70.0 10.2361 16.7488 0 
92 1 0.46 70.0 10.6343 16.5453 0 
62 1 0.46 70.0 11.0319 16.7263 0 
293 1 0.46 70.0 11.4676 16.6592 0 
17 1 0.46 70.0 11.9142 16.6255 0 
190 1 0.46 70.0 12.3636 16.564 0 
138 1 0.46 70.0 12.8198 16.5856 0 
31 1 0.46 70.0 13.2966 16.5478 0 
188 1 0.46 70.0 13.8177 16.525 0 
82 1 0.46 70.0 14.3626 16.4958 0 
4 1 0.46 70.0 14.9705 16.4755 0 
164 1 0.46 70.0 4.62991 17.1054 0 
95 1 0.46 70.0 5.21419 17.1452 0 
146 1 0.46 70.0 5.73763 17.2107 0 
111 1 0.46 70.0 6.23718 17.2754 0 
220 1 0.46 70.0 6.97744 16.943 0 
287 1 0.46 70.0 7.42462 17.0185 0 
136 1 0.46 70.0 7.87146 17.0594 0 
46 1 0.46 70.0 8.62919 17.0673 0 
191 1 0.46 70.0 9.39626 17.1196 0 
24 1 0.46 70.0 9.84154 17.0257 0 
123 1 0.46 70.0 10.2757 17.1841 0 
124 1 0.46 70.0 10.6993 17.026 0 
130 1 0.46 70.0 11.2237 17.1103 0 
102 1 0.46 70.0 11.6821 17.0587 0 
78 1 0.46 70.0 12.1392 17.0243 0 
225 1 0.46 70.0 12.596 16.9998 0 
6 1 0.46 70.0 13.0724 16.9858 0 
107 1 0.46 70.0 13.5692 16.9532 0 
275 1 0.46 70.0 14.1155 16.9661 0 
189 1 0.46 70.0 14.6618 16.965 0 
84 1 0.46 70.0 15.2848 16.9959 0 
68 1 0.46 70.0 4.29567 17.6676 0 
299 1 0.46 70.0 4.90666 17.6311 0 
43 1 0.46 70.0 5.44371 17.6521 0 
120 1 0.46 70.0 5.96062 17.6809 0 
219 1 0.46 70.0 6.44606 17.733 0 
194 1 0.46 70.0 6.70947 17.3395 0 
65 1 0.46 70.0 7.16519 17.3983 0 
156 1 0.46 70.0 7.62246 17.4339 0 
226 1 0.46 70.0 8.11262 17.4331 0 
55 1 0.46 70.0 8.5576 17.4938 0 
33 1 0.46 70.0 8.99669 17.3425 0 
39 1 0.46 70.0 9.14087 17.7659 0 
168 1 0.46 70.0 9.53025 17.5214 0 
227 1 0.46 70.0 9.97236 17.4856 0 
54 1 0.46 70.0 10.6123 17.4692 0 
9 1 0.46 70.0 11.0473 17.5052 0 
10 1 0.46 70.0 11.4957 17.4715 0 
281 1 0.46 70.0 11.9456 17.44 0 
269 1 0.46 70.0 12.3998 17.4182 0 
242 1 0.46 70.0 12.8573 17.4016 0 
89 1 0.46 70.0 13.3284 17.3782 0 
114 1 0.46 70.0 13.5702 17.7741 0 
297 1 0.46 70.0 13.8257 17.3547 0 
233 1 0.46 70.0 14.0598 17.7555 0 
83 1 0.46 70.0 14.4033 17.4289 0 
48 1 0.46 70.0 14.9419 17.4484 0 
246 1 0.46 70.0 15.6194 17.5411 0 
197 1 0.46 70.0 4.61143 18.1429 0 
37 1 0.46 70.0 5.15009 18.1201 0 
178 1 0.46 70.0 5.69438 18.094 0 
231 1 0.46 70.0 6.18994 18.1288 0 
133 1 0.46 70.0 6.65987 18.1709 0 
14 1 0.46 70.0 6.90928 17.7831 0 
12 1 0.46 70.0 7.36703 17.8129 0 
270 1 0.46 70.0 7.11805 18.1989 0 
79 1 0.46 70.0 7.8255 17.8337 0 
122 1 0.46 70.0 7.57437 18.2177 0 
137 1 0.46 70.0 8.27602 17.855 0 
139 1 0.46 70.0 8.72492 17.8912 0 
167 1 0.46 70.0 9.53256 17.9457 0 
228 1 0.46 70.0 9.96005 17.9173 0 
66 1 0.46 70.0 10.3852 17.8467 0 
47 1 0.46 70.0 10.8303 17.8856 0 
149 1 0.46 70.0 11.289 17.8748 0 
302 1 0.46 70.0 11.7401 17.8495 0 
210 1 0.46 70.0 12.1911 17.8268 0 
100 1 0.46 70.0 12.431 18.216 0 
171 1 0.46 70.0 12.6455 17.811 0 
213 1 0.46 70.0 12.8853 18.2031 0 
74 1 0.46 70.0 13.1032 17.7968 0 
44 1 0.46 70.0 13.3426 18.1913 0 
53 1 0.46 70.0 13.8032 18.1768 0 
76 1 0.46 70.0 14.2799 18.1582 0 
187 1 0.46 70.0 14.6879 17.9232 0 
154 1 0.46 70.0 15.2156 17.9265 0 
254 1 0.46 70.0 4.18991 18.56 0 
69 1 0.46 70.0 4.80853 18.6403 0 
5 1 0.46 70.0 5.44042 18.5133 0 
117 1 0.46 70.0 5.94229 18.5311 0 
303 1 0.46 70.0 6.41671 18.5622 0 
113 1 0.46 70.0 6.87525 18.5892 0 
32 1 0.46 70.0 7.33115 18.6043 0 
289 1 0.46 70.0 7.7835 18.6213 0 
8 1 0.46 70.0 8.02584 18.2378 0 
160 1 0.46 70.0 8.23181 18.6404 0 
116 1 0.46 70.0 8.47123 18.2613 0 
221 1 0.46 70.0 8.67728 18.6587 0 
81 1 0.46 70.0 8.91587 18.2789 0 
301 1 0.46 70.0 9.3367 18.3134 0 
16 1 0.46 70.0 9.77525 18.3151 0 
21 1 0.46 70.0 10.2121 18.2816 0 
174 1 0.46 70.0 10.6406 18.2787 0 
300 1 0.46 70.0 11.0814 18.2651 0 
67 1 0.46 70.0 10.875 18.6605 0 
169 1 0.46 70.0 11.3186 18.6464 0 
234 1 0.46 70.0 11.5308 18.2515 0 
161 1 0.46 70.0 11.7667 18.633 0 
28 1 0.46 70.0 11.9801 18.2324 0 
180 1 0.46 70.0 12.2164 18.6186 0 
36 1 0.46 70.0 12.6686 18.6062 0 
99 1 0.46 70.0 13.1243 18.5959 0 
195 1 0.46 70.0 13.5836 18.5886 0 
88 1 0.46 70.0 14.0593 18.5787 0 
15 1 0.46 70.0 14.5777 18.5115 0 
193 1 0.46 70.0 15.0724 18.428 0 
241 1 0.46 70.0 15.6549 18.2994 0 
105 1 0.46 70.0 4.42011 19.098 0 
108 1 0.46 70.0 5.20742 18.9276 0 
106 1 0.46 70.0 5.70429 18.9446 0 
243 1 0.46 70.0 6.17814 18.96 0 
70 1 0.46 70.0 6.637 18.9821 0 
3 1 0.46 70.0 7.09318 18.9938 0 
235 1 0.46 70.0 7.54646 19.0068 0 
250 1 0.46 70.0 7.99679 19.0216 0 
20 1 0.46 70.0 8.44477 19.0372 0 
72 1 0.46 70.0 8.88965 19.0554 0 
60 1 0.46 70.0 9.11586 18.6842 0 
279 1 0.46 70.0 9.33618 19.0686 0 
198 1 0.46 70.0 9.55868 18.6953 0 
200 1 0.46 70.0 10.0019 18.6853 0 
283 1 0.46 70.0 9.78154 19.0713 0 
259 1 0.46 70.0 10.2228 19.0651 0 
109 1 0.46 70.0 10.4357 18.6727 0 
104 1 0.46 70.0 10.6623 19.0523 0 
166 1 0.46 70.0 11.1054 19.0402 0 
296 1 0.46 70.0 11.5511 19.0283 0 
253 1 0.46 70.0 11.9997 19.0173 0 
249 1 0.46 70.0 12.4504 19.0066 0 
152 1 0.46 70.0 12.9041 18.9974 0 
163 1 0.46 70.0 13.3612 18.9899 0 
273 1 0.46 70.0 13.8286 18.9853 0 
121 1 0.46 70.0 14.3296 18.9567 0 
40 1 0.46 70.0 14.8477 18.9181 0 
22 1 0.46 70.0 15.4076 18.8747 0 
135 1 0.46 70.0 15.9831 18.8287 0 
90 1 0.46 70.0 4.90803 19.3082 0 
202 1 0.46 70.0 5.44282 19.3608 0 
278 1 0.46 70.0 5.93556 19.3665 0 
172 1 0.46 70.0 6.40094 19.377 0 
204 1 0.46 70.0 6.85847 19.3864 0 
256 1 0.46 70.0 7.31286 19.3951 0 
292 1 0.46 70.0 7.76458 19.4055 0 
41 1 0.46 70.0 8.21428 19.4168 0 
218 1 0.46 70.0 8.66218 19.4294 0 
182 1 0.46 70.0 9.11012 19.4402 0 
157 1 0.46 70.0 9.55714 19.4476 0 
93 1 0.46 70.0 10.0032 19.4481 0 
151 1 0.46 70.0 10.4472 19.441 0 
155 1 0.46 70.0 10.8895 19.4298 0 
50 1 0.46 70.0 11.3343 19.4205 0 
148 1 0.46 70.0 11.7813 19.4118 0 
80 1 0.46 70.0 12.2308 19.4038 0 
19 1 0.46 70.0 12.683 19.3963 0 
208 1 0.46 70.0 13.1383 19.3899 0 
232 1 0.46 70.0 13.5974 19.3841 0 
215 1 0.46 70.0 14.0791 19.3733 0 
63 1 0.46 70.0 14.5857 19.3578 0 
267 1 0.46 70.0 15.1275 19.3277 0 
212 1 0.46 70.0 15.8075 19.4098 0 
255 1 0.46 70.0 4.07174 19.5876 0 
284 1 0.46 70.0 4.62189 19.7276 0 
201 1 0.46 70.0 5.17194 19.7684 0 
25 1 0.46 70.0 5.68974 19.7752 0 
118 1 0.46 70.0 6.16779 19.7782 0 
30 1 0.46 70.0 6.62657 19.7816 0 
295 1 0.46 70.0 7.0819 19.7866 0 
251 1 0.46 70.0 7.53464 19.7927 0 
185 1 0.46 70.0 7.98543 19.7995 0 
294 1 0.46 70.0 8.43485 19.8069 0 
181 1 0.46 70.0 8.88398 19.8137 0 
179 1 0.46 70.0 9.33261 19.8191 0 
272 1 0.46 70.0 9.77973 19.8233 0 
142 1 0.46 70.0 10.2269 19.8217 0 
263 1 0.46 70.0 10.6712 19.8151 0 
11 1 0.46 70.0 11.1156 19.8086 0 
103 1 0.46 70.0 11.5617 19.8029 0 
280 1 0.46 70.0 12.01 19.7976 0 
173 1 0.46 70.0 12.4607 19.7925 0 
176 1 0.46 70.0 12.9142 19.7879 0 
177 1 0.46 70.0 13.371 19.7836 0 
214 1 0.46 70.0 13.8335 19.7786 0 
192 1 0.46 70.0 14.3202 19.7748 0 
258 1 0.46 70.0 14.8369 19.7703 0 
257 1 0.46 70.0 15.3905 19.7499 0 
