# LAMMPS data file for rigid bodies

303 atoms

1 atom types

0.0 	 20.0 	 xlo xhi 
0.0 	 20.0 	 ylo yhi 
-1.0 	 1.0 	 zlo zhi 

Atoms

200 1 0.46 70.0 8.44662 13.5168 0 
239 1 0.46 70.0 9.37563 13.4466 0 
303 1 0.46 70.0 10.2262 13.4608 0 
36 1 0.46 70.0 11.1391 13.5337 0 
84 1 0.46 70.0 7.36414 14.1615 0 
181 1 0.46 70.0 7.89287 13.8385 0 
288 1 0.46 70.0 8.40917 14.1355 0 
57 1 0.46 70.0 8.91767 13.8373 0 
80 1 0.46 70.0 9.34108 14.1481 0 
158 1 0.46 70.0 9.78186 13.8407 0 
264 1 0.46 70.0 10.209 14.1493 0 
135 1 0.46 70.0 10.6533 13.8487 0 
129 1 0.46 70.0 11.1261 14.1506 0 
118 1 0.46 70.0 11.6413 13.9061 0 
24 1 0.46 70.0 12.2275 13.7889 0 
282 1 0.46 70.0 12.7163 14.2183 0 
157 1 0.46 70.0 6.86676 14.5252 0 
154 1 0.46 70.0 7.91293 14.4232 0 
99 1 0.46 70.0 8.87228 14.4141 0 
140 1 0.46 70.0 9.76498 14.4289 0 
197 1 0.46 70.0 10.6495 14.4183 0 
277 1 0.46 70.0 11.5914 14.4658 0 
298 1 0.46 70.0 12.1256 14.3588 0 
55 1 0.46 70.0 13.6534 14.5993 0 
21 1 0.46 70.0 6.39988 14.9198 0 
172 1 0.46 70.0 6.97357 15.0965 0 
28 1 0.46 70.0 7.43124 14.7366 0 
121 1 0.46 70.0 7.94722 14.9468 0 
31 1 0.46 70.0 8.40691 14.6811 0 
149 1 0.46 70.0 8.86705 14.9317 0 
191 1 0.46 70.0 9.31406 14.6841 0 
224 1 0.46 70.0 9.7429 14.9384 0 
273 1 0.46 70.0 10.1942 14.6873 0 
297 1 0.46 70.0 10.62 14.9271 0 
234 1 0.46 70.0 11.0916 14.6796 0 
29 1 0.46 70.0 11.5214 14.9669 0 
182 1 0.46 70.0 12.0173 14.8772 0 
25 1 0.46 70.0 12.5354 14.7804 0 
206 1 0.46 70.0 13.0809 14.6919 0 
49 1 0.46 70.0 14.0727 15.1037 0 
40 1 0.46 70.0 5.96273 15.344 0 
125 1 0.46 70.0 6.54435 15.4848 0 
103 1 0.46 70.0 7.49693 15.2528 0 
109 1 0.46 70.0 7.99358 15.4323 0 
203 1 0.46 70.0 8.43029 15.1862 0 
237 1 0.46 70.0 8.88561 15.4195 0 
67 1 0.46 70.0 9.30535 15.1812 0 
257 1 0.46 70.0 9.72049 15.4199 0 
9 1 0.46 70.0 10.1627 15.1805 0 
10 1 0.46 70.0 10.5759 15.4016 0 
2 1 0.46 70.0 11.0406 15.1674 0 
184 1 0.46 70.0 11.4554 15.4299 0 
89 1 0.46 70.0 11.9314 15.3623 0 
274 1 0.46 70.0 12.422 15.288 0 
63 1 0.46 70.0 12.9349 15.2223 0 
136 1 0.46 70.0 13.4782 15.1699 0 
70 1 0.46 70.0 5.55537 15.7985 0 
238 1 0.46 70.0 6.14403 15.8999 0 
42 1 0.46 70.0 6.67487 15.998 0 
228 1 0.46 70.0 7.07161 15.6138 0 
180 1 0.46 70.0 7.56916 15.7339 0 
249 1 0.46 70.0 8.051 15.8895 0 
5 1 0.46 70.0 8.46954 15.6643 0 
43 1 0.46 70.0 8.91453 15.8833 0 
166 1 0.46 70.0 9.31989 15.6634 0 
170 1 0.46 70.0 9.73226 15.898 0 
12 1 0.46 70.0 10.1187 15.6496 0 
108 1 0.46 70.0 10.5227 15.8572 0 
201 1 0.46 70.0 10.9815 15.6254 0 
217 1 0.46 70.0 11.3771 15.8793 0 
186 1 0.46 70.0 11.8343 15.8217 0 
215 1 0.46 70.0 12.3031 15.7641 0 
267 1 0.46 70.0 12.7908 15.709 0 
168 1 0.46 70.0 13.306 15.672 0 
110 1 0.46 70.0 13.8516 15.6407 0 
284 1 0.46 70.0 14.4558 15.6035 0 
73 1 0.46 70.0 5.17727 16.2834 0 
189 1 0.46 70.0 5.77442 16.3414 0 
229 1 0.46 70.0 6.3061 16.4074 0 
199 1 0.46 70.0 7.17323 16.0992 0 
216 1 0.46 70.0 7.64983 16.1886 0 
246 1 0.46 70.0 8.11005 16.3418 0 
211 1 0.46 70.0 8.5142 16.1247 0 
120 1 0.46 70.0 8.93445 16.3403 0 
174 1 0.46 70.0 9.33633 16.1262 0 
122 1 0.46 70.0 9.72953 16.3628 0 
218 1 0.46 70.0 10.1245 16.136 0 
66 1 0.46 70.0 10.5396 16.3135 0 
48 1 0.46 70.0 10.9198 16.0777 0 
167 1 0.46 70.0 11.2876 16.3211 0 
133 1 0.46 70.0 11.7361 16.2696 0 
278 1 0.46 70.0 12.1887 16.2211 0 
26 1 0.46 70.0 12.6452 16.1728 0 
16 1 0.46 70.0 13.1254 16.1351 0 
85 1 0.46 70.0 13.6472 16.1259 0 
263 1 0.46 70.0 14.1919 16.1175 0 
20 1 0.46 70.0 14.8039 16.1184 0 
126 1 0.46 70.0 4.82637 16.802 0 
65 1 0.46 70.0 5.44059 16.8039 0 
270 1 0.46 70.0 5.97532 16.8404 0 
209 1 0.46 70.0 6.47369 16.8855 0 
115 1 0.46 70.0 6.80357 16.481 0 
34 1 0.46 70.0 7.27397 16.5635 0 
96 1 0.46 70.0 7.72716 16.6389 0 
142 1 0.46 70.0 8.16319 16.7905 0 
39 1 0.46 70.0 8.55746 16.5821 0 
163 1 0.46 70.0 8.93664 16.8378 0 
299 1 0.46 70.0 9.314 16.5848 0 
177 1 0.46 70.0 9.69587 16.8124 0 
91 1 0.46 70.0 10.1312 16.6238 0 
61 1 0.46 70.0 10.5708 16.7475 0 
261 1 0.46 70.0 11.0148 16.6719 0 
50 1 0.46 70.0 11.5349 16.6894 0 
14 1 0.46 70.0 11.9909 16.6584 0 
223 1 0.46 70.0 12.4481 16.6233 0 
208 1 0.46 70.0 12.9111 16.5834 0 
17 1 0.46 70.0 13.4023 16.5547 0 
272 1 0.46 70.0 13.9509 16.5883 0 
210 1 0.46 70.0 14.495 16.6019 0 
77 1 0.46 70.0 15.1313 16.6491 0 
253 1 0.46 70.0 5.14523 17.2791 0 
1 1 0.46 70.0 5.68953 17.2885 0 
244 1 0.46 70.0 6.20632 17.3025 0 
290 1 0.46 70.0 6.93805 16.9477 0 
171 1 0.46 70.0 7.39028 17.0145 0 
15 1 0.46 70.0 7.83835 17.0795 0 
295 1 0.46 70.0 8.53072 17.0435 0 
62 1 0.46 70.0 8.92367 17.297 0 
236 1 0.46 70.0 9.33159 17.0629 0 
38 1 0.46 70.0 10.034 17.0731 0 
116 1 0.46 70.0 10.4491 17.1594 0 
156 1 0.46 70.0 10.8837 17.1045 0 
75 1 0.46 70.0 11.3271 17.0847 0 
179 1 0.46 70.0 11.7826 17.0684 0 
127 1 0.46 70.0 12.2375 17.0461 0 
131 1 0.46 70.0 12.6953 17.0216 0 
18 1 0.46 70.0 13.1595 16.9873 0 
185 1 0.46 70.0 13.6511 16.9658 0 
143 1 0.46 70.0 14.2397 17.0683 0 
52 1 0.46 70.0 14.7774 17.0846 0 
137 1 0.46 70.0 15.4973 17.1896 0 
138 1 0.46 70.0 4.48636 17.3643 0 
151 1 0.46 70.0 4.88008 17.7632 0 
56 1 0.46 70.0 5.41483 17.7505 0 
106 1 0.46 70.0 5.95482 17.719 0 
11 1 0.46 70.0 6.44349 17.7527 0 
87 1 0.46 70.0 6.68508 17.3511 0 
139 1 0.46 70.0 7.1419 17.4029 0 
104 1 0.46 70.0 7.59637 17.4503 0 
190 1 0.46 70.0 8.07391 17.4553 0 
53 1 0.46 70.0 8.51945 17.4839 0 
102 1 0.46 70.0 9.31482 17.503 0 
220 1 0.46 70.0 9.74501 17.4145 0 
213 1 0.46 70.0 10.1868 17.5089 0 
19 1 0.46 70.0 10.6788 17.5173 0 
169 1 0.46 70.0 11.1221 17.4898 0 
51 1 0.46 70.0 11.5698 17.4705 0 
153 1 0.46 70.0 12.0224 17.4535 0 
119 1 0.46 70.0 12.4766 17.4363 0 
150 1 0.46 70.0 12.934 17.4176 0 
47 1 0.46 70.0 13.394 17.3906 0 
81 1 0.46 70.0 13.8761 17.3688 0 
78 1 0.46 70.0 14.1087 17.764 0 
173 1 0.46 70.0 14.5347 17.5599 0 
301 1 0.46 70.0 15.071 17.5453 0 
230 1 0.46 70.0 4.46779 18.1412 0 
117 1 0.46 70.0 5.71185 18.1332 0 
82 1 0.46 70.0 6.2053 18.1548 0 
33 1 0.46 70.0 6.90663 17.7969 0 
268 1 0.46 70.0 6.67125 18.1906 0 
13 1 0.46 70.0 7.36337 17.8328 0 
259 1 0.46 70.0 7.12902 18.2184 0 
281 1 0.46 70.0 7.82372 17.8422 0 
207 1 0.46 70.0 8.2749 17.8619 0 
72 1 0.46 70.0 8.72504 17.8709 0 
161 1 0.46 70.0 9.15398 17.8966 0 
152 1 0.46 70.0 9.59367 17.8611 0 
145 1 0.46 70.0 10.0234 17.9077 0 
114 1 0.46 70.0 10.4619 17.8968 0 
111 1 0.46 70.0 10.9116 17.892 0 
27 1 0.46 70.0 11.3576 17.8728 0 
59 1 0.46 70.0 11.8065 17.856 0 
175 1 0.46 70.0 12.2585 17.8407 0 
202 1 0.46 70.0 12.7129 17.8266 0 
107 1 0.46 70.0 13.17 17.813 0 
176 1 0.46 70.0 12.9493 18.2166 0 
130 1 0.46 70.0 13.6296 17.7937 0 
76 1 0.46 70.0 13.4085 18.2066 0 
231 1 0.46 70.0 13.8829 18.1895 0 
205 1 0.46 70.0 14.392 18.1276 0 
159 1 0.46 70.0 14.8842 18.0301 0 
222 1 0.46 70.0 15.494 17.9304 0 
251 1 0.46 70.0 4.12852 18.6531 0 
187 1 0.46 70.0 4.74227 18.6614 0 
254 1 0.46 70.0 5.09797 18.2367 0 
146 1 0.46 70.0 5.47949 18.5365 0 
97 1 0.46 70.0 5.97125 18.5611 0 
289 1 0.46 70.0 6.43768 18.5859 0 
271 1 0.46 70.0 6.89595 18.6068 0 
227 1 0.46 70.0 7.35325 18.6176 0 
188 1 0.46 70.0 7.5868 18.2302 0 
195 1 0.46 70.0 7.80729 18.6293 0 
248 1 0.46 70.0 8.03922 18.2444 0 
6 1 0.46 70.0 8.25861 18.6411 0 
241 1 0.46 70.0 8.48963 18.2576 0 
262 1 0.46 70.0 8.70646 18.6548 0 
155 1 0.46 70.0 8.93281 18.2753 0 
112 1 0.46 70.0 9.15388 18.6626 0 
148 1 0.46 70.0 9.37978 18.2756 0 
141 1 0.46 70.0 9.81149 18.2875 0 
64 1 0.46 70.0 10.2538 18.2912 0 
105 1 0.46 70.0 10.695 18.2815 0 
294 1 0.46 70.0 10.9239 18.6626 0 
123 1 0.46 70.0 11.1423 18.2712 0 
23 1 0.46 70.0 11.3715 18.6516 0 
258 1 0.46 70.0 11.59 18.2559 0 
269 1 0.46 70.0 11.8208 18.6392 0 
178 1 0.46 70.0 12.0401 18.2416 0 
94 1 0.46 70.0 12.2725 18.6275 0 
232 1 0.46 70.0 12.4932 18.2287 0 
165 1 0.46 70.0 12.7271 18.6168 0 
71 1 0.46 70.0 13.1846 18.6072 0 
7 1 0.46 70.0 13.6501 18.5982 0 
41 1 0.46 70.0 14.1456 18.5685 0 
260 1 0.46 70.0 14.664 18.5216 0 
242 1 0.46 70.0 15.2164 18.4536 0 
292 1 0.46 70.0 15.8346 18.4456 0 
183 1 0.46 70.0 5.19187 18.9065 0 
245 1 0.46 70.0 5.71617 18.9634 0 
132 1 0.46 70.0 6.20069 18.9825 0 
86 1 0.46 70.0 6.66243 18.9969 0 
44 1 0.46 70.0 7.12081 19.0058 0 
74 1 0.46 70.0 7.57633 19.015 0 
226 1 0.46 70.0 8.02919 19.0247 0 
4 1 0.46 70.0 8.47937 19.0351 0 
60 1 0.46 70.0 8.92812 19.0437 0 
293 1 0.46 70.0 9.37338 19.0527 0 
3 1 0.46 70.0 9.59419 18.6722 0 
45 1 0.46 70.0 10.036 18.6763 0 
302 1 0.46 70.0 9.81646 19.0593 0 
69 1 0.46 70.0 10.48 18.6731 0 
79 1 0.46 70.0 10.2605 19.059 0 
252 1 0.46 70.0 10.7048 19.052 0 
275 1 0.46 70.0 11.1513 19.0424 0 
92 1 0.46 70.0 11.6002 19.0329 0 
144 1 0.46 70.0 12.0511 19.0232 0 
280 1 0.46 70.0 12.5045 19.014 0 
192 1 0.46 70.0 12.9608 19.0055 0 
160 1 0.46 70.0 13.4209 18.9975 0 
35 1 0.46 70.0 13.8991 18.9843 0 
113 1 0.46 70.0 14.4027 18.9579 0 
235 1 0.46 70.0 14.9379 18.9212 0 
233 1 0.46 70.0 15.5233 18.931 0 
54 1 0.46 70.0 4.42852 19.1495 0 
266 1 0.46 70.0 4.92996 19.3133 0 
212 1 0.46 70.0 5.45041 19.3561 0 
221 1 0.46 70.0 5.95404 19.3775 0 
243 1 0.46 70.0 6.42888 19.3891 0 
134 1 0.46 70.0 6.88872 19.3952 0 
90 1 0.46 70.0 7.3457 19.4021 0 
88 1 0.46 70.0 7.80001 19.4092 0 
30 1 0.46 70.0 8.25185 19.4167 0 
193 1 0.46 70.0 8.70172 19.4238 0 
100 1 0.46 70.0 9.14908 19.4309 0 
124 1 0.46 70.0 9.59405 19.4384 0 
198 1 0.46 70.0 10.0397 19.4411 0 
98 1 0.46 70.0 10.4856 19.4377 0 
285 1 0.46 70.0 10.931 19.4298 0 
255 1 0.46 70.0 11.3788 19.4225 0 
93 1 0.46 70.0 11.8289 19.4153 0 
279 1 0.46 70.0 12.2813 19.4082 0 
162 1 0.46 70.0 12.7362 19.4015 0 
8 1 0.46 70.0 13.1939 19.3948 0 
225 1 0.46 70.0 13.6587 19.3883 0 
300 1 0.46 70.0 14.1443 19.3742 0 
83 1 0.46 70.0 14.6549 19.3584 0 
101 1 0.46 70.0 15.1938 19.346 0 
250 1 0.46 70.0 15.9421 19.348 0 
194 1 0.46 70.0 4.07099 19.6129 0 
68 1 0.46 70.0 4.63785 19.7307 0 
219 1 0.46 70.0 5.19016 19.7702 0 
32 1 0.46 70.0 5.70559 19.7751 0 
247 1 0.46 70.0 6.19167 19.7809 0 
265 1 0.46 70.0 6.65717 19.7865 0 
276 1 0.46 70.0 7.1153 19.7908 0 
22 1 0.46 70.0 7.57088 19.7954 0 
291 1 0.46 70.0 8.02406 19.8002 0 
196 1 0.46 70.0 8.47513 19.8048 0 
37 1 0.46 70.0 8.92406 19.8094 0 
256 1 0.46 70.0 9.37111 19.8142 0 
214 1 0.46 70.0 9.81692 19.8187 0 
240 1 0.46 70.0 10.264 19.8184 0 
287 1 0.46 70.0 10.7099 19.8136 0 
164 1 0.46 70.0 11.1571 19.8086 0 
286 1 0.46 70.0 11.6063 19.804 0 
147 1 0.46 70.0 12.0577 19.7994 0 
46 1 0.46 70.0 12.5115 19.7949 0 
58 1 0.46 70.0 12.968 19.7904 0 
95 1 0.46 70.0 13.4275 19.7852 0 
128 1 0.46 70.0 13.8982 19.7794 0 
283 1 0.46 70.0 14.3903 19.7746 0 
296 1 0.46 70.0 14.9165 19.7712 0 
204 1 0.46 70.0 15.5189 19.7321 0 
