# LAMMPS data file for rigid bodies

303 atoms

1 atom types

0.0 	 20.0 	 xlo xhi 
0.0 	 20.0 	 ylo yhi 
-1.0 	 1.0 	 zlo zhi 

Atoms

113 1 0.46 70.0 8.91512 13.5343 0 
94 1 0.46 70.0 9.54058 13.5571 0 
56 1 0.46 70.0 10.1629 13.5486 0 
27 1 0.46 70.0 11.2156 13.4955 0 
12 1 0.46 70.0 7.49351 14.1979 0 
44 1 0.46 70.0 8.12022 13.836 0 
241 1 0.46 70.0 8.66818 14.0538 0 
176 1 0.46 70.0 9.23219 14.0665 0 
186 1 0.46 70.0 9.76579 14.0932 0 
74 1 0.46 70.0 10.277 14.1125 0 
266 1 0.46 70.0 10.716 13.8316 0 
133 1 0.46 70.0 11.204 14.0799 0 
134 1 0.46 70.0 11.7887 13.8723 0 
201 1 0.46 70.0 6.70861 14.557 0 
253 1 0.46 70.0 8.03007 14.4076 0 
41 1 0.46 70.0 8.52837 14.5486 0 
43 1 0.46 70.0 9.03679 14.5504 0 
100 1 0.46 70.0 9.54461 14.5653 0 
90 1 0.46 70.0 10.0719 14.5887 0 
182 1 0.46 70.0 10.6199 14.4868 0 
21 1 0.46 70.0 11.1165 14.5767 0 
227 1 0.46 70.0 11.651 14.4379 0 
277 1 0.46 70.0 12.209 14.3245 0 
291 1 0.46 70.0 12.8039 14.2887 0 
84 1 0.46 70.0 6.29038 15.0458 0 
216 1 0.46 70.0 7.25787 14.7269 0 
19 1 0.46 70.0 7.7692 14.866 0 
204 1 0.46 70.0 8.26631 14.9741 0 
64 1 0.46 70.0 8.77476 15.0038 0 
207 1 0.46 70.0 9.25746 15.0134 0 
252 1 0.46 70.0 9.72452 15.0278 0 
18 1 0.46 70.0 10.1836 15.0518 0 
129 1 0.46 70.0 10.6358 14.9826 0 
108 1 0.46 70.0 11.0899 15.0495 0 
80 1 0.46 70.0 11.5481 14.9463 0 
290 1 0.46 70.0 12.0334 14.8645 0 
296 1 0.46 70.0 12.5473 14.8332 0 
137 1 0.46 70.0 13.0927 14.8256 0 
271 1 0.46 70.0 13.6688 14.8019 0 
261 1 0.46 70.0 5.91033 15.5305 0 
158 1 0.46 70.0 6.87715 15.1481 0 
136 1 0.46 70.0 7.42948 15.2597 0 
254 1 0.46 70.0 7.96944 15.3641 0 
265 1 0.46 70.0 8.5119 15.4124 0 
28 1 0.46 70.0 9.01437 15.4401 0 
275 1 0.46 70.0 9.48793 15.4581 0 
105 1 0.46 70.0 9.95332 15.4731 0 
293 1 0.46 70.0 10.4183 15.4651 0 
187 1 0.46 70.0 10.8757 15.4628 0 
65 1 0.46 70.0 11.3537 15.4414 0 
107 1 0.46 70.0 11.8202 15.3696 0 
122 1 0.46 70.0 12.3029 15.323 0 
231 1 0.46 70.0 12.8162 15.3245 0 
150 1 0.46 70.0 13.3538 15.3415 0 
24 1 0.46 70.0 13.9352 15.3434 0 
78 1 0.46 70.0 6.49472 15.594 0 
215 1 0.46 70.0 7.01822 15.654 0 
52 1 0.46 70.0 7.4914 15.741 0 
161 1 0.46 70.0 7.94182 15.8223 0 
1 1 0.46 70.0 8.39442 15.8537 0 
141 1 0.46 70.0 8.84754 15.8667 0 
32 1 0.46 70.0 9.30124 15.8775 0 
269 1 0.46 70.0 9.755 15.8867 0 
210 1 0.46 70.0 10.2102 15.8865 0 
238 1 0.46 70.0 10.6656 15.8815 0 
159 1 0.46 70.0 11.1235 15.8669 0 
177 1 0.46 70.0 11.5869 15.8415 0 
298 1 0.46 70.0 12.0509 15.796 0 
76 1 0.46 70.0 12.531 15.7682 0 
151 1 0.46 70.0 13.0424 15.8042 0 
206 1 0.46 70.0 13.5495 15.8439 0 
289 1 0.46 70.0 14.0667 15.8864 0 
264 1 0.46 70.0 14.564 15.631 0 
154 1 0.46 70.0 5.05983 16.1994 0 
218 1 0.46 70.0 5.67101 16.0518 0 
228 1 0.46 70.0 6.23301 16.0644 0 
170 1 0.46 70.0 6.76142 16.0876 0 
55 1 0.46 70.0 7.24703 16.1573 0 
303 1 0.46 70.0 7.71387 16.2213 0 
163 1 0.46 70.0 8.17416 16.2562 0 
110 1 0.46 70.0 8.63114 16.272 0 
126 1 0.46 70.0 9.08488 16.2821 0 
38 1 0.46 70.0 9.53616 16.2888 0 
282 1 0.46 70.0 9.98741 16.2886 0 
60 1 0.46 70.0 10.439 16.2866 0 
29 1 0.46 70.0 10.8922 16.2805 0 
268 1 0.46 70.0 11.3479 16.2668 0 
190 1 0.46 70.0 11.8058 16.245 0 
139 1 0.46 70.0 12.267 16.2157 0 
246 1 0.46 70.0 12.7468 16.1983 0 
245 1 0.46 70.0 13.2797 16.2894 0 
262 1 0.46 70.0 13.7771 16.3473 0 
124 1 0.46 70.0 14.3111 16.3526 0 
263 1 0.46 70.0 14.8503 16.2036 0 
132 1 0.46 70.0 4.77031 16.818 0 
128 1 0.46 70.0 5.47866 16.5823 0 
283 1 0.46 70.0 6.01125 16.5432 0 
118 1 0.46 70.0 6.53994 16.5207 0 
69 1 0.46 70.0 7.02686 16.5715 0 
93 1 0.46 70.0 7.4945 16.623 0 
96 1 0.46 70.0 7.95332 16.6546 0 
191 1 0.46 70.0 8.41031 16.6709 0 
131 1 0.46 70.0 8.86408 16.6808 0 
240 1 0.46 70.0 9.31475 16.6862 0 
14 1 0.46 70.0 9.76378 16.6877 0 
102 1 0.46 70.0 10.2126 16.6867 0 
121 1 0.46 70.0 10.6613 16.6842 0 
88 1 0.46 70.0 11.1117 16.6788 0 
114 1 0.46 70.0 11.5647 16.6671 0 
247 1 0.46 70.0 12.0199 16.649 0 
138 1 0.46 70.0 12.4776 16.6262 0 
48 1 0.46 70.0 12.948 16.6117 0 
73 1 0.46 70.0 13.54 16.7845 0 
103 1 0.46 70.0 14.0436 16.818 0 
232 1 0.46 70.0 14.5878 16.8025 0 
120 1 0.46 70.0 15.1589 16.7261 0 
185 1 0.46 70.0 5.26287 17.0692 0 
233 1 0.46 70.0 5.78382 17.0373 0 
135 1 0.46 70.0 6.32566 16.9481 0 
127 1 0.46 70.0 6.81182 16.9821 0 
125 1 0.46 70.0 7.27686 17.0246 0 
148 1 0.46 70.0 7.73504 17.052 0 
3 1 0.46 70.0 8.19107 17.0669 0 
20 1 0.46 70.0 8.64394 17.0757 0 
174 1 0.46 70.0 9.09378 17.0808 0 
67 1 0.46 70.0 9.54158 17.0842 0 
221 1 0.46 70.0 9.9888 17.0849 0 
40 1 0.46 70.0 10.4357 17.0832 0 
220 1 0.46 70.0 10.8826 17.0794 0 
112 1 0.46 70.0 11.331 17.074 0 
111 1 0.46 70.0 11.7813 17.0649 0 
260 1 0.46 70.0 12.2341 17.0506 0 
276 1 0.46 70.0 12.6896 17.033 0 
6 1 0.46 70.0 13.1484 17.0205 0 
89 1 0.46 70.0 13.8102 17.2579 0 
152 1 0.46 70.0 14.3246 17.2701 0 
149 1 0.46 70.0 14.8717 17.2619 0 
192 1 0.46 70.0 15.4687 17.2463 0 
146 1 0.46 70.0 4.3928 17.3772 0 
130 1 0.46 70.0 4.9547 17.5049 0 
251 1 0.46 70.0 5.50289 17.5396 0 
222 1 0.46 70.0 6.12505 17.3693 0 
278 1 0.46 70.0 5.91109 17.7742 0 
179 1 0.46 70.0 6.60212 17.3923 0 
229 1 0.46 70.0 7.06061 17.4262 0 
106 1 0.46 70.0 7.51773 17.4479 0 
273 1 0.46 70.0 7.97256 17.4604 0 
68 1 0.46 70.0 8.42436 17.4678 0 
250 1 0.46 70.0 8.87384 17.4734 0 
208 1 0.46 70.0 9.32132 17.4779 0 
145 1 0.46 70.0 9.7669 17.4805 0 
142 1 0.46 70.0 10.2123 17.4802 0 
97 1 0.46 70.0 10.6575 17.4771 0 
302 1 0.46 70.0 11.1044 17.4723 0 
50 1 0.46 70.0 11.5534 17.4657 0 
91 1 0.46 70.0 12.0041 17.4573 0 
15 1 0.46 70.0 12.4571 17.4463 0 
255 1 0.46 70.0 12.9135 17.4325 0 
59 1 0.46 70.0 13.378 17.411 0 
54 1 0.46 70.0 14.075 17.7012 0 
8 1 0.46 70.0 14.6091 17.7271 0 
225 1 0.46 70.0 15.1557 17.7387 0 
297 1 0.46 70.0 4.59462 17.9508 0 
58 1 0.46 70.0 5.1721 17.9959 0 
26 1 0.46 70.0 5.64284 18.1456 0 
99 1 0.46 70.0 6.14482 18.1996 0 
217 1 0.46 70.0 6.38307 17.8001 0 
98 1 0.46 70.0 6.61211 18.2213 0 
270 1 0.46 70.0 6.84097 17.8259 0 
301 1 0.46 70.0 7.29737 17.8411 0 
180 1 0.46 70.0 7.75144 17.8507 0 
70 1 0.46 70.0 8.20347 17.8578 0 
285 1 0.46 70.0 8.65348 17.864 0 
22 1 0.46 70.0 9.10102 17.8692 0 
13 1 0.46 70.0 9.54605 17.8733 0 
49 1 0.46 70.0 9.99062 17.8748 0 
243 1 0.46 70.0 10.4351 17.8729 0 
63 1 0.46 70.0 10.88 17.8684 0 
284 1 0.46 70.0 11.3276 17.8625 0 
189 1 0.46 70.0 11.7777 17.8554 0 
242 1 0.46 70.0 12.2305 17.8466 0 
42 1 0.46 70.0 12.6858 17.8371 0 
257 1 0.46 70.0 13.1446 17.8257 0 
274 1 0.46 70.0 13.6191 17.7964 0 
86 1 0.46 70.0 13.3771 18.2169 0 
95 1 0.46 70.0 13.8521 18.1893 0 
16 1 0.46 70.0 14.3267 18.1262 0 
23 1 0.46 70.0 14.9 18.2103 0 
123 1 0.46 70.0 15.7957 17.7889 0 
17 1 0.46 70.0 4.23506 18.4107 0 
101 1 0.46 70.0 4.85341 18.4428 0 
213 1 0.46 70.0 5.37436 18.524 0 
175 1 0.46 70.0 5.88941 18.5818 0 
203 1 0.46 70.0 6.37659 18.613 0 
292 1 0.46 70.0 6.8417 18.6198 0 
172 1 0.46 70.0 7.07064 18.2308 0 
295 1 0.46 70.0 7.30018 18.6268 0 
25 1 0.46 70.0 7.52682 18.2391 0 
140 1 0.46 70.0 7.75582 18.6335 0 
171 1 0.46 70.0 7.9807 18.2464 0 
288 1 0.46 70.0 8.20867 18.6394 0 
153 1 0.46 70.0 8.43189 18.2525 0 
87 1 0.46 70.0 8.65859 18.6449 0 
143 1 0.46 70.0 8.88049 18.2581 0 
173 1 0.46 70.0 9.1056 18.6501 0 
35 1 0.46 70.0 9.32644 18.263 0 
178 1 0.46 70.0 9.54944 18.6551 0 
212 1 0.46 70.0 9.76996 18.2666 0 
181 1 0.46 70.0 9.99274 18.6571 0 
199 1 0.46 70.0 10.2134 18.2664 0 
197 1 0.46 70.0 10.4361 18.6548 0 
299 1 0.46 70.0 10.6569 18.2625 0 
109 1 0.46 70.0 10.8799 18.6492 0 
57 1 0.46 70.0 11.103 18.2569 0 
196 1 0.46 70.0 11.327 18.6434 0 
79 1 0.46 70.0 11.5517 18.2506 0 
11 1 0.46 70.0 11.777 18.6371 0 
184 1 0.46 70.0 12.0033 18.2432 0 
300 1 0.46 70.0 12.2298 18.6303 0 
147 1 0.46 70.0 12.4576 18.2351 0 
205 1 0.46 70.0 12.6853 18.623 0 
45 1 0.46 70.0 12.9148 18.2265 0 
160 1 0.46 70.0 13.1436 18.6157 0 
279 1 0.46 70.0 13.6074 18.6103 0 
82 1 0.46 70.0 14.0795 18.5873 0 
81 1 0.46 70.0 14.5573 18.5417 0 
188 1 0.46 70.0 15.4405 18.2276 0 
169 1 0.46 70.0 15.8896 18.6173 0 
157 1 0.46 70.0 4.0161 19.0253 0 
198 1 0.46 70.0 4.55789 18.9076 0 
193 1 0.46 70.0 5.11341 18.9229 0 
75 1 0.46 70.0 5.63472 18.9651 0 
61 1 0.46 70.0 6.13201 18.9992 0 
237 1 0.46 70.0 6.61044 19.0087 0 
104 1 0.46 70.0 7.07206 19.0143 0 
77 1 0.46 70.0 7.52936 19.02 0 
234 1 0.46 70.0 7.9838 19.0253 0 
155 1 0.46 70.0 8.43532 19.0303 0 
239 1 0.46 70.0 8.88388 19.035 0 
294 1 0.46 70.0 9.32957 19.0402 0 
200 1 0.46 70.0 9.77231 19.0447 0 
5 1 0.46 70.0 10.2152 19.0445 0 
209 1 0.46 70.0 10.6579 19.0397 0 
230 1 0.46 70.0 11.1035 19.034 0 
168 1 0.46 70.0 11.5519 19.0286 0 
156 1 0.46 70.0 12.0031 19.023 0 
214 1 0.46 70.0 12.4571 19.0172 0 
267 1 0.46 70.0 12.9138 19.0112 0 
272 1 0.46 70.0 13.3732 19.0058 0 
248 1 0.46 70.0 13.843 19.0028 0 
258 1 0.46 70.0 14.3246 18.9836 0 
72 1 0.46 70.0 14.8228 18.9245 0 
259 1 0.46 70.0 15.2689 18.7219 0 
66 1 0.46 70.0 4.84726 19.3357 0 
10 1 0.46 70.0 5.38012 19.3604 0 
144 1 0.46 70.0 5.88471 19.3848 0 
194 1 0.46 70.0 6.37295 19.3956 0 
162 1 0.46 70.0 6.84255 19.402 0 
281 1 0.46 70.0 7.30138 19.4067 0 
39 1 0.46 70.0 7.75738 19.411 0 
53 1 0.46 70.0 8.21043 19.4151 0 
115 1 0.46 70.0 8.66044 19.419 0 
223 1 0.46 70.0 9.10735 19.4232 0 
165 1 0.46 70.0 9.55103 19.4287 0 
244 1 0.46 70.0 9.99475 19.4309 0 
119 1 0.46 70.0 10.4384 19.4284 0 
224 1 0.46 70.0 10.8819 19.4226 0 
33 1 0.46 70.0 11.3285 19.418 0 
287 1 0.46 70.0 11.7781 19.4136 0 
36 1 0.46 70.0 12.2304 19.4092 0 
280 1 0.46 70.0 12.6855 19.4046 0 
286 1 0.46 70.0 13.1432 19.4001 0 
71 1 0.46 70.0 13.6064 19.3962 0 
7 1 0.46 70.0 14.0884 19.3914 0 
166 1 0.46 70.0 14.5988 19.3715 0 
256 1 0.46 70.0 15.1286 19.3076 0 
219 1 0.46 70.0 15.6482 19.154 0 
9 1 0.46 70.0 4.0495 19.6135 0 
211 1 0.46 70.0 4.5758 19.7398 0 
51 1 0.46 70.0 5.12963 19.7713 0 
195 1 0.46 70.0 5.64305 19.7762 0 
31 1 0.46 70.0 6.13255 19.7826 0 
46 1 0.46 70.0 6.60803 19.7886 0 
85 1 0.46 70.0 7.07174 19.7939 0 
62 1 0.46 70.0 7.52941 19.797 0 
47 1 0.46 70.0 7.98408 19.8 0 
4 1 0.46 70.0 8.4357 19.8029 0 
117 1 0.46 70.0 8.88427 19.8059 0 
236 1 0.46 70.0 9.32995 19.8094 0 
183 1 0.46 70.0 9.77353 19.8133 0 
116 1 0.46 70.0 10.218 19.8132 0 
167 1 0.46 70.0 10.6613 19.8091 0 
226 1 0.46 70.0 11.1066 19.8055 0 
249 1 0.46 70.0 11.5546 19.8023 0 
34 1 0.46 70.0 12.0054 19.7992 0 
30 1 0.46 70.0 12.459 19.796 0 
37 1 0.46 70.0 12.9155 19.7929 0 
83 1 0.46 70.0 13.3748 19.7894 0 
235 1 0.46 70.0 13.8481 19.7833 0 
164 1 0.46 70.0 14.3425 19.777 0 
2 1 0.46 70.0 14.8688 19.7705 0 
92 1 0.46 70.0 15.4184 19.7284 0 
202 1 0.46 70.0 15.9891 19.6235 0 
