# LAMMPS data file for rigid bodies

303 atoms

1 atom types

0.0 	 20.0 	 xlo xhi 
0.0 	 20.0 	 ylo yhi 
-1.0 	 1.0 	 zlo zhi 

Atoms

64 1 0.46 70.0 9.10945 13.2571 0 
285 1 0.46 70.0 7.97763 13.7101 0 
18 1 0.46 70.0 8.60335 13.7095 0 
97 1 0.46 70.0 9.72679 13.5107 0 
295 1 0.46 70.0 10.3044 13.6507 0 
12 1 0.46 70.0 10.8874 13.5073 0 
73 1 0.46 70.0 7.06759 14.1952 0 
8 1 0.46 70.0 9.20811 13.8121 0 
24 1 0.46 70.0 9.78739 14.079 0 
196 1 0.46 70.0 10.2966 14.1967 0 
242 1 0.46 70.0 10.8136 14.0836 0 
4 1 0.46 70.0 11.3547 13.9268 0 
193 1 0.46 70.0 11.925 13.8524 0 
237 1 0.46 70.0 12.411 14.2174 0 
194 1 0.46 70.0 7.66115 14.2253 0 
248 1 0.46 70.0 8.23562 14.2368 0 
282 1 0.46 70.0 8.78095 14.2407 0 
188 1 0.46 70.0 9.318 14.304 0 
25 1 0.46 70.0 9.83534 14.6189 0 
3 1 0.46 70.0 10.7903 14.6002 0 
74 1 0.46 70.0 11.2832 14.4768 0 
174 1 0.46 70.0 11.8287 14.43 0 
129 1 0.46 70.0 13.0445 14.5036 0 
202 1 0.46 70.0 6.0838 15.0945 0 
172 1 0.46 70.0 6.74556 14.7059 0 
161 1 0.46 70.0 7.35751 14.7214 0 
10 1 0.46 70.0 7.90453 14.7247 0 
5 1 0.46 70.0 8.41657 14.7273 0 
53 1 0.46 70.0 8.90468 14.7312 0 
134 1 0.46 70.0 9.37932 14.7648 0 
135 1 0.46 70.0 10.0777 15.1044 0 
267 1 0.46 70.0 10.3131 14.6818 0 
32 1 0.46 70.0 10.5691 15.0883 0 
256 1 0.46 70.0 11.0466 15.024 0 
35 1 0.46 70.0 11.5233 14.9325 0 
209 1 0.46 70.0 12.0293 14.9156 0 
220 1 0.46 70.0 12.5252 14.759 0 
280 1 0.46 70.0 13.0757 15.0968 0 
290 1 0.46 70.0 13.611 14.9087 0 
275 1 0.46 70.0 6.63525 15.239 0 
253 1 0.46 70.0 7.16485 15.2054 0 
36 1 0.46 70.0 7.67732 15.1953 0 
91 1 0.46 70.0 8.17366 15.1871 0 
175 1 0.46 70.0 8.65796 15.1809 0 
283 1 0.46 70.0 9.13345 15.1827 0 
217 1 0.46 70.0 9.62073 15.1545 0 
152 1 0.46 70.0 10.3019 15.5228 0 
2 1 0.46 70.0 10.7613 15.5053 0 
144 1 0.46 70.0 11.2178 15.4617 0 
62 1 0.46 70.0 11.6719 15.3968 0 
142 1 0.46 70.0 12.1351 15.3911 0 
44 1 0.46 70.0 12.5957 15.2717 0 
108 1 0.46 70.0 13.4435 15.5199 0 
84 1 0.46 70.0 14.0143 15.3783 0 
126 1 0.46 70.0 5.38434 15.6988 0 
208 1 0.46 70.0 5.95775 15.6773 0 
149 1 0.46 70.0 6.47881 15.7263 0 
171 1 0.46 70.0 6.99285 15.6835 0 
301 1 0.46 70.0 7.48444 15.6579 0 
40 1 0.46 70.0 7.96471 15.6375 0 
191 1 0.46 70.0 8.43831 15.618 0 
195 1 0.46 70.0 8.90783 15.6041 0 
119 1 0.46 70.0 9.15839 15.9927 0 
107 1 0.46 70.0 9.37899 15.5787 0 
232 1 0.46 70.0 9.61831 15.9699 0 
158 1 0.46 70.0 9.84328 15.5557 0 
141 1 0.46 70.0 10.0774 15.9485 0 
274 1 0.46 70.0 10.535 15.9246 0 
266 1 0.46 70.0 10.9939 15.902 0 
288 1 0.46 70.0 11.4548 15.8677 0 
187 1 0.46 70.0 11.9187 15.8309 0 
268 1 0.46 70.0 12.4207 15.7802 0 
241 1 0.46 70.0 12.9239 15.6604 0 
165 1 0.46 70.0 14.0235 15.9445 0 
67 1 0.46 70.0 14.575 15.8099 0 
23 1 0.46 70.0 5.14205 16.2769 0 
148 1 0.46 70.0 5.73572 16.2072 0 
229 1 0.46 70.0 6.26964 16.1889 0 
88 1 0.46 70.0 6.80102 16.1399 0 
252 1 0.46 70.0 7.29268 16.1109 0 
273 1 0.46 70.0 7.76457 16.0813 0 
82 1 0.46 70.0 8.23102 16.0497 0 
14 1 0.46 70.0 8.69409 16.021 0 
54 1 0.46 70.0 8.48811 16.4354 0 
16 1 0.46 70.0 8.94953 16.4018 0 
29 1 0.46 70.0 9.40768 16.3763 0 
189 1 0.46 70.0 9.86502 16.3547 0 
261 1 0.46 70.0 10.321 16.3343 0 
257 1 0.46 70.0 10.7753 16.3139 0 
219 1 0.46 70.0 11.2307 16.2941 0 
21 1 0.46 70.0 11.6873 16.2688 0 
75 1 0.46 70.0 12.1449 16.2339 0 
66 1 0.46 70.0 12.6033 16.2021 0 
298 1 0.46 70.0 13.056 16.1221 0 
77 1 0.46 70.0 13.5244 16.0322 0 
259 1 0.46 70.0 14.3402 16.4054 0 
157 1 0.46 70.0 14.9182 16.3534 0 
146 1 0.46 70.0 4.9207 16.8269 0 
244 1 0.46 70.0 5.53188 16.7153 0 
112 1 0.46 70.0 6.07082 16.6559 0 
41 1 0.46 70.0 6.60804 16.5743 0 
218 1 0.46 70.0 7.10304 16.5489 0 
78 1 0.46 70.0 7.57103 16.5221 0 
59 1 0.46 70.0 8.02871 16.4761 0 
183 1 0.46 70.0 8.29047 16.8517 0 
137 1 0.46 70.0 8.74683 16.8113 0 
133 1 0.46 70.0 9.20295 16.7812 0 
186 1 0.46 70.0 9.65742 16.7584 0 
182 1 0.46 70.0 10.1111 16.7388 0 
201 1 0.46 70.0 10.5639 16.7199 0 
131 1 0.46 70.0 11.016 16.7009 0 
151 1 0.46 70.0 11.4695 16.683 0 
216 1 0.46 70.0 11.9248 16.662 0 
120 1 0.46 70.0 12.3822 16.637 0 
231 1 0.46 70.0 12.8479 16.6008 0 
184 1 0.46 70.0 13.3202 16.5337 0 
27 1 0.46 70.0 13.8155 16.4723 0 
143 1 0.46 70.0 14.626 16.88 0 
86 1 0.46 70.0 5.35022 17.211 0 
167 1 0.46 70.0 5.88626 17.1278 0 
34 1 0.46 70.0 6.4318 17.0005 0 
121 1 0.46 70.0 6.92021 16.9735 0 
28 1 0.46 70.0 7.38295 16.9554 0 
173 1 0.46 70.0 7.83644 16.9076 0 
170 1 0.46 70.0 8.10166 17.2776 0 
93 1 0.46 70.0 8.55093 17.2225 0 
98 1 0.46 70.0 9.00313 17.1852 0 
95 1 0.46 70.0 9.45411 17.1599 0 
258 1 0.46 70.0 9.90445 17.1406 0 
181 1 0.46 70.0 10.3542 17.1229 0 
128 1 0.46 70.0 10.8036 17.1051 0 
203 1 0.46 70.0 11.2545 17.0876 0 
130 1 0.46 70.0 11.7075 17.0705 0 
56 1 0.46 70.0 12.1627 17.053 0 
265 1 0.46 70.0 12.6209 17.0295 0 
260 1 0.46 70.0 13.091 16.9947 0 
235 1 0.46 70.0 13.5745 16.9423 0 
211 1 0.46 70.0 14.0892 16.9112 0 
43 1 0.46 70.0 15.2361 16.8918 0 
236 1 0.46 70.0 4.73759 17.3774 0 
45 1 0.46 70.0 5.18644 17.7 0 
247 1 0.46 70.0 5.71576 17.6081 0 
200 1 0.46 70.0 6.26788 17.4279 0 
281 1 0.46 70.0 6.74812 17.3984 0 
278 1 0.46 70.0 7.20686 17.378 0 
50 1 0.46 70.0 7.66092 17.356 0 
271 1 0.46 70.0 7.94398 17.7638 0 
159 1 0.46 70.0 8.36372 17.6393 0 
230 1 0.46 70.0 8.80847 17.5894 0 
70 1 0.46 70.0 9.25529 17.5596 0 
140 1 0.46 70.0 9.70087 17.5401 0 
245 1 0.46 70.0 10.1469 17.5236 0 
101 1 0.46 70.0 10.5935 17.5071 0 
94 1 0.46 70.0 11.0409 17.49 0 
292 1 0.46 70.0 11.4911 17.4735 0 
72 1 0.46 70.0 11.9441 17.4574 0 
111 1 0.46 70.0 12.3998 17.442 0 
197 1 0.46 70.0 12.8585 17.4209 0 
243 1 0.46 70.0 13.3295 17.388 0 
213 1 0.46 70.0 13.8205 17.3493 0 
163 1 0.46 70.0 14.0578 17.7554 0 
224 1 0.46 70.0 14.3559 17.3588 0 
31 1 0.46 70.0 14.8994 17.3575 0 
83 1 0.46 70.0 15.5662 17.4507 0 
58 1 0.46 70.0 4.40736 17.8596 0 
177 1 0.46 70.0 4.89609 18.1225 0 
255 1 0.46 70.0 5.51776 18.087 0 
264 1 0.46 70.0 6.11824 17.8575 0 
39 1 0.46 70.0 6.58725 17.8258 0 
169 1 0.46 70.0 7.04427 17.8025 0 
227 1 0.46 70.0 7.33912 18.205 0 
239 1 0.46 70.0 7.49665 17.7811 0 
90 1 0.46 70.0 7.78779 18.1897 0 
291 1 0.46 70.0 8.23111 18.1896 0 
118 1 0.46 70.0 8.61445 17.9954 0 
154 1 0.46 70.0 9.05618 17.9577 0 
113 1 0.46 70.0 9.4975 17.9375 0 
250 1 0.46 70.0 9.93966 17.922 0 
15 1 0.46 70.0 10.383 17.9068 0 
168 1 0.46 70.0 10.8275 17.8903 0 
124 1 0.46 70.0 11.2748 17.8742 0 
212 1 0.46 70.0 11.7252 17.8588 0 
127 1 0.46 70.0 12.1785 17.8443 0 
179 1 0.46 70.0 12.6346 17.8307 0 
178 1 0.46 70.0 12.8676 18.2197 0 
254 1 0.46 70.0 13.0937 17.813 0 
249 1 0.46 70.0 13.3266 18.2066 0 
147 1 0.46 70.0 13.5641 17.7833 0 
122 1 0.46 70.0 13.7934 18.1818 0 
22 1 0.46 70.0 14.6219 17.8249 0 
226 1 0.46 70.0 14.2815 18.1605 0 
240 1 0.46 70.0 15.1582 17.8349 0 
61 1 0.46 70.0 15.5795 18.1996 0 
7 1 0.46 70.0 4.04054 18.3607 0 
199 1 0.46 70.0 4.56787 18.5631 0 
92 1 0.46 70.0 5.22919 18.5016 0 
192 1 0.46 70.0 5.69001 18.6498 0 
277 1 0.46 70.0 5.94923 18.2769 0 
80 1 0.46 70.0 6.21338 18.6547 0 
19 1 0.46 70.0 6.42743 18.2522 0 
284 1 0.46 70.0 6.6984 18.6364 0 
79 1 0.46 70.0 6.88546 18.2257 0 
132 1 0.46 70.0 7.16182 18.6191 0 
300 1 0.46 70.0 7.61754 18.6078 0 
185 1 0.46 70.0 8.06827 18.6079 0 
85 1 0.46 70.0 8.51408 18.6192 0 
160 1 0.46 70.0 8.84782 18.352 0 
13 1 0.46 70.0 9.28958 18.3312 0 
228 1 0.46 70.0 9.72939 18.3177 0 
138 1 0.46 70.0 10.1707 18.3039 0 
60 1 0.46 70.0 10.6139 18.2886 0 
100 1 0.46 70.0 11.0584 18.2725 0 
51 1 0.46 70.0 11.5064 18.2577 0 
289 1 0.46 70.0 11.287 18.6537 0 
233 1 0.46 70.0 11.9574 18.244 0 
222 1 0.46 70.0 11.7364 18.6409 0 
296 1 0.46 70.0 12.4111 18.2314 0 
125 1 0.46 70.0 12.1884 18.6294 0 
52 1 0.46 70.0 12.6431 18.6189 0 
223 1 0.46 70.0 13.1004 18.6093 0 
302 1 0.46 70.0 13.5601 18.6008 0 
96 1 0.46 70.0 14.0293 18.5828 0 
110 1 0.46 70.0 14.5229 18.551 0 
87 1 0.46 70.0 14.9392 18.3038 0 
263 1 0.46 70.0 4.10116 19.0073 0 
276 1 0.46 70.0 4.94234 18.9077 0 
33 1 0.46 70.0 5.42881 19.0259 0 
251 1 0.46 70.0 5.96191 19.0353 0 
153 1 0.46 70.0 6.47401 19.0298 0 
164 1 0.46 70.0 6.95084 19.0173 0 
37 1 0.46 70.0 7.41036 19.0086 0 
166 1 0.46 70.0 7.86659 19.0092 0 
17 1 0.46 70.0 8.31929 19.0176 0 
49 1 0.46 70.0 8.76958 19.0282 0 
65 1 0.46 70.0 9.06499 18.7163 0 
38 1 0.46 70.0 9.27791 19.0869 0 
115 1 0.46 70.0 9.50974 18.708 0 
139 1 0.46 70.0 9.72632 19.0844 0 
136 1 0.46 70.0 9.95257 18.6974 0 
71 1 0.46 70.0 10.1737 19.0736 0 
234 1 0.46 70.0 10.3961 18.6834 0 
114 1 0.46 70.0 10.62 19.0599 0 
76 1 0.46 70.0 10.8402 18.6681 0 
162 1 0.46 70.0 11.0666 19.0462 0 
103 1 0.46 70.0 11.5153 19.0346 0 
9 1 0.46 70.0 11.9661 19.0245 0 
205 1 0.46 70.0 12.4193 19.0155 0 
206 1 0.46 70.0 12.875 19.0073 0 
297 1 0.46 70.0 13.3334 19.0002 0 
190 1 0.46 70.0 13.7993 18.9937 0 
117 1 0.46 70.0 14.2891 18.9759 0 
279 1 0.46 70.0 14.8183 18.9115 0 
99 1 0.46 70.0 15.2977 18.7139 0 
89 1 0.46 70.0 15.9184 18.7109 0 
1 1 0.46 70.0 4.58949 19.2735 0 
303 1 0.46 70.0 5.13325 19.3939 0 
63 1 0.46 70.0 5.69946 19.4108 0 
6 1 0.46 70.0 6.22607 19.4097 0 
262 1 0.46 70.0 6.72397 19.4087 0 
42 1 0.46 70.0 7.18894 19.4033 0 
180 1 0.46 70.0 7.6448 19.4012 0 
176 1 0.46 70.0 8.09808 19.405 0 
155 1 0.46 70.0 8.55059 19.4123 0 
287 1 0.46 70.0 9.00318 19.4208 0 
48 1 0.46 70.0 9.49029 19.4607 0 
20 1 0.46 70.0 9.94603 19.4558 0 
270 1 0.46 70.0 10.3974 19.446 0 
102 1 0.46 70.0 10.8454 19.4342 0 
221 1 0.46 70.0 11.294 19.4246 0 
238 1 0.46 70.0 11.744 19.4164 0 
198 1 0.46 70.0 12.196 19.4092 0 
207 1 0.46 70.0 12.6504 19.4027 0 
11 1 0.46 70.0 13.1074 19.3969 0 
106 1 0.46 70.0 13.5685 19.3913 0 
225 1 0.46 70.0 14.0478 19.3837 0 
215 1 0.46 70.0 14.5575 19.3605 0 
145 1 0.46 70.0 15.0794 19.3175 0 
272 1 0.46 70.0 15.595 19.19 0 
116 1 0.46 70.0 4.20789 19.6721 0 
204 1 0.46 70.0 4.81849 19.7634 0 
246 1 0.46 70.0 5.42138 19.7767 0 
214 1 0.46 70.0 5.96618 19.7839 0 
123 1 0.46 70.0 6.47754 19.7892 0 
210 1 0.46 70.0 6.96031 19.7937 0 
46 1 0.46 70.0 7.41884 19.7932 0 
57 1 0.46 70.0 7.87317 19.7942 0 
55 1 0.46 70.0 8.32582 19.7976 0 
156 1 0.46 70.0 8.77845 19.8023 0 
150 1 0.46 70.0 9.23179 19.8084 0 
286 1 0.46 70.0 9.71491 19.8272 0 
294 1 0.46 70.0 10.1724 19.8239 0 
269 1 0.46 70.0 10.6234 19.8168 0 
109 1 0.46 70.0 11.0727 19.8104 0 
30 1 0.46 70.0 11.5222 19.8049 0 
299 1 0.46 70.0 11.9732 19.8001 0 
26 1 0.46 70.0 12.4262 19.7956 0 
105 1 0.46 70.0 12.8818 19.7915 0 
81 1 0.46 70.0 13.3402 19.7874 0 
104 1 0.46 70.0 13.8085 19.7814 0 
69 1 0.46 70.0 14.2989 19.7756 0 
47 1 0.46 70.0 14.8166 19.7706 0 
293 1 0.46 70.0 15.3699 19.736 0 
68 1 0.46 70.0 15.9523 19.6341 0 
