# LAMMPS data file for rigid bodies

303 atoms

1 atom types

0.0 	 20.0 	 xlo xhi 
0.0 	 20.0 	 ylo yhi 
-1.0 	 1.0 	 zlo zhi 

Atoms

62 1 0.46 70.0 9.71634 13.2557 0 
219 1 0.46 70.0 8.65896 13.5241 0 
297 1 0.46 70.0 9.25131 13.6541 0 
128 1 0.46 70.0 10.3223 13.5276 0 
85 1 0.46 70.0 10.8809 13.6546 0 
117 1 0.46 70.0 11.4686 13.4901 0 
41 1 0.46 70.0 7.73925 13.8675 0 
167 1 0.46 70.0 8.30494 14.0043 0 
53 1 0.46 70.0 8.85341 14.097 0 
242 1 0.46 70.0 9.38 14.1973 0 
232 1 0.46 70.0 9.82338 13.825 0 
260 1 0.46 70.0 10.3835 14.1071 0 
252 1 0.46 70.0 10.8961 14.1984 0 
70 1 0.46 70.0 11.4256 14.0596 0 
115 1 0.46 70.0 12.008 13.8868 0 
58 1 0.46 70.0 12.9149 14.2072 0 
77 1 0.46 70.0 6.68523 14.5963 0 
88 1 0.46 70.0 7.36243 14.3338 0 
134 1 0.46 70.0 7.95116 14.4485 0 
224 1 0.46 70.0 8.49129 14.5322 0 
255 1 0.46 70.0 8.99702 14.6081 0 
116 1 0.46 70.0 9.90527 14.3273 0 
210 1 0.46 70.0 10.3901 14.6461 0 
262 1 0.46 70.0 11.3342 14.5825 0 
160 1 0.46 70.0 11.8345 14.4643 0 
99 1 0.46 70.0 12.3629 14.3569 0 
38 1 0.46 70.0 6.34571 15.1028 0 
69 1 0.46 70.0 7.18854 14.8497 0 
220 1 0.46 70.0 7.7065 14.9065 0 
184 1 0.46 70.0 8.21174 14.9638 0 
28 1 0.46 70.0 8.70442 15.0263 0 
235 1 0.46 70.0 9.1859 15.0898 0 
48 1 0.46 70.0 9.4804 14.6931 0 
229 1 0.46 70.0 9.94717 14.799 0 
12 1 0.46 70.0 10.8566 14.6887 0 
131 1 0.46 70.0 11.1633 15.0729 0 
188 1 0.46 70.0 11.6608 14.9818 0 
300 1 0.46 70.0 12.1684 14.8924 0 
276 1 0.46 70.0 12.7052 14.803 0 
172 1 0.46 70.0 13.2842 14.6911 0 
4 1 0.46 70.0 6.88859 15.2713 0 
189 1 0.46 70.0 7.43075 15.3416 0 
258 1 0.46 70.0 7.93853 15.3877 0 
303 1 0.46 70.0 8.42736 15.4354 0 
127 1 0.46 70.0 8.90641 15.4859 0 
253 1 0.46 70.0 9.66419 15.1695 0 
64 1 0.46 70.0 9.38197 15.5324 0 
302 1 0.46 70.0 10.1872 15.1904 0 
141 1 0.46 70.0 10.6535 15.1218 0 
279 1 0.46 70.0 10.9641 15.5012 0 
101 1 0.46 70.0 11.4724 15.4464 0 
222 1 0.46 70.0 11.9738 15.3767 0 
181 1 0.46 70.0 12.4873 15.3048 0 
195 1 0.46 70.0 13.0318 15.2316 0 
84 1 0.46 70.0 13.6326 15.1402 0 
20 1 0.46 70.0 14.3356 15.4414 0 
299 1 0.46 70.0 5.36719 15.9079 0 
122 1 0.46 70.0 6.00191 15.5568 0 
298 1 0.46 70.0 6.58636 15.6824 0 
206 1 0.46 70.0 7.14678 15.7464 0 
76 1 0.46 70.0 7.66601 15.7961 0 
104 1 0.46 70.0 8.15643 15.8374 0 
171 1 0.46 70.0 8.63124 15.8766 0 
149 1 0.46 70.0 9.09752 15.9162 0 
33 1 0.46 70.0 9.55513 15.9538 0 
42 1 0.46 70.0 9.90605 15.5604 0 
243 1 0.46 70.0 10.4637 15.557 0 
271 1 0.46 70.0 10.8878 15.9499 0 
155 1 0.46 70.0 11.3385 15.8859 0 
233 1 0.46 70.0 11.7992 15.8293 0 
256 1 0.46 70.0 12.2788 15.7735 0 
239 1 0.46 70.0 12.7759 15.7198 0 
245 1 0.46 70.0 13.2902 15.6768 0 
82 1 0.46 70.0 13.8152 15.6494 0 
129 1 0.46 70.0 14.6999 15.9853 0 
25 1 0.46 70.0 5.9013 16.0884 0 
291 1 0.46 70.0 6.41238 16.1435 0 
55 1 0.46 70.0 6.91644 16.1631 0 
267 1 0.46 70.0 7.41459 16.1968 0 
118 1 0.46 70.0 7.89933 16.2324 0 
107 1 0.46 70.0 8.37182 16.2645 0 
27 1 0.46 70.0 8.83621 16.2943 0 
91 1 0.46 70.0 9.29796 16.3301 0 
201 1 0.46 70.0 9.76347 16.3832 0 
47 1 0.46 70.0 10.0035 16.0001 0 
31 1 0.46 70.0 10.4453 16.0059 0 
3 1 0.46 70.0 10.2222 16.4049 0 
137 1 0.46 70.0 10.6814 16.3905 0 
151 1 0.46 70.0 11.1506 16.3217 0 
268 1 0.46 70.0 11.6106 16.2665 0 
217 1 0.46 70.0 12.0778 16.2199 0 
209 1 0.46 70.0 12.5564 16.1765 0 
198 1 0.46 70.0 13.0518 16.1408 0 
59 1 0.46 70.0 13.5719 16.1241 0 
111 1 0.46 70.0 14.131 16.0818 0 
158 1 0.46 70.0 5.01201 16.4673 0 
108 1 0.46 70.0 5.59023 16.5281 0 
143 1 0.46 70.0 6.14491 16.574 0 
185 1 0.46 70.0 6.67379 16.5841 0 
87 1 0.46 70.0 7.17088 16.6001 0 
203 1 0.46 70.0 7.65023 16.6254 0 
241 1 0.46 70.0 8.11793 16.6494 0 
144 1 0.46 70.0 8.57869 16.6746 0 
165 1 0.46 70.0 9.03691 16.7047 0 
57 1 0.46 70.0 9.49374 16.7405 0 
164 1 0.46 70.0 9.97982 16.7881 0 
103 1 0.46 70.0 10.4619 16.7927 0 
8 1 0.46 70.0 10.9647 16.7375 0 
269 1 0.46 70.0 11.4265 16.6865 0 
221 1 0.46 70.0 11.8843 16.644 0 
49 1 0.46 70.0 12.3486 16.6102 0 
114 1 0.46 70.0 12.8257 16.5789 0 
190 1 0.46 70.0 13.3247 16.5567 0 
176 1 0.46 70.0 13.8681 16.5464 0 
67 1 0.46 70.0 14.4406 16.5337 0 
177 1 0.46 70.0 15.0472 16.5103 0 
121 1 0.46 70.0 4.69149 17.0334 0 
199 1 0.46 70.0 5.29762 16.9966 0 
215 1 0.46 70.0 5.86738 16.9923 0 
228 1 0.46 70.0 6.41976 16.9901 0 
288 1 0.46 70.0 6.92646 17.0008 0 
148 1 0.46 70.0 7.4045 17.0183 0 
18 1 0.46 70.0 7.86731 17.0359 0 
213 1 0.46 70.0 8.32571 17.0574 0 
43 1 0.46 70.0 8.78233 17.0822 0 
166 1 0.46 70.0 9.23857 17.1109 0 
60 1 0.46 70.0 9.69793 17.1387 0 
247 1 0.46 70.0 10.2171 17.1752 0 
86 1 0.46 70.0 10.7564 17.1335 0 
45 1 0.46 70.0 11.2358 17.0978 0 
170 1 0.46 70.0 11.6932 17.0597 0 
106 1 0.46 70.0 12.151 17.0257 0 
293 1 0.46 70.0 12.6126 17.0015 0 
6 1 0.46 70.0 13.0892 16.9787 0 
246 1 0.46 70.0 13.5956 16.9593 0 
286 1 0.46 70.0 14.1559 16.9746 0 
207 1 0.46 70.0 14.745 17.0022 0 
178 1 0.46 70.0 15.3786 17.0681 0 
94 1 0.46 70.0 4.49604 17.6719 0 
280 1 0.46 70.0 5.03933 17.4995 0 
26 1 0.46 70.0 5.60584 17.4264 0 
237 1 0.46 70.0 6.1674 17.3884 0 
264 1 0.46 70.0 6.68159 17.3947 0 
52 1 0.46 70.0 7.1601 17.4103 0 
10 1 0.46 70.0 7.62007 17.4245 0 
46 1 0.46 70.0 8.07701 17.4422 0 
124 1 0.46 70.0 8.5315 17.4626 0 
187 1 0.46 70.0 8.98491 17.4853 0 
71 1 0.46 70.0 9.44035 17.5091 0 
139 1 0.46 70.0 9.92558 17.5158 0 
32 1 0.46 70.0 10.5195 17.5049 0 
238 1 0.46 70.0 11.0302 17.4931 0 
257 1 0.46 70.0 11.4982 17.4684 0 
249 1 0.46 70.0 11.9544 17.4376 0 
295 1 0.46 70.0 12.4114 17.4142 0 
119 1 0.46 70.0 12.8708 17.3946 0 
218 1 0.46 70.0 13.347 17.3736 0 
92 1 0.46 70.0 13.5973 17.7693 0 
183 1 0.46 70.0 13.8548 17.3602 0 
162 1 0.46 70.0 14.099 17.7646 0 
15 1 0.46 70.0 14.4313 17.4136 0 
112 1 0.46 70.0 15.0181 17.5052 0 
125 1 0.46 70.0 15.5489 17.7574 0 
132 1 0.46 70.0 4.90397 18.1215 0 
294 1 0.46 70.0 5.37056 17.8879 0 
5 1 0.46 70.0 5.71432 18.2122 0 
157 1 0.46 70.0 5.92949 17.7932 0 
96 1 0.46 70.0 6.21046 18.1842 0 
105 1 0.46 70.0 6.44109 17.7866 0 
66 1 0.46 70.0 6.68059 18.1954 0 
225 1 0.46 70.0 6.91863 17.8022 0 
7 1 0.46 70.0 7.3777 17.8147 0 
75 1 0.46 70.0 7.13889 18.2059 0 
226 1 0.46 70.0 7.83307 17.8292 0 
163 1 0.46 70.0 7.59389 18.218 0 
301 1 0.46 70.0 8.28516 17.8462 0 
283 1 0.46 70.0 8.73386 17.8652 0 
285 1 0.46 70.0 9.17841 17.8853 0 
202 1 0.46 70.0 9.61528 17.9074 0 
290 1 0.46 70.0 10.0407 17.927 0 
159 1 0.46 70.0 10.4552 17.9263 0 
93 1 0.46 70.0 10.8777 17.8995 0 
272 1 0.46 70.0 11.3148 17.8723 0 
236 1 0.46 70.0 11.7612 17.8462 0 
54 1 0.46 70.0 12.2126 17.8246 0 
24 1 0.46 70.0 12.6674 17.806 0 
73 1 0.46 70.0 12.4587 18.2127 0 
37 1 0.46 70.0 13.1255 17.7892 0 
197 1 0.46 70.0 12.9131 18.1974 0 
56 1 0.46 70.0 13.3705 18.1849 0 
123 1 0.46 70.0 13.8343 18.1732 0 
287 1 0.46 70.0 14.3181 18.18 0 
39 1 0.46 70.0 14.6773 17.8784 0 
266 1 0.46 70.0 15.1262 18.153 0 
251 1 0.46 70.0 4.33501 18.2568 0 
147 1 0.46 70.0 4.74653 18.663 0 
248 1 0.46 70.0 5.32384 18.4677 0 
182 1 0.46 70.0 5.97591 18.5871 0 
51 1 0.46 70.0 6.44424 18.5899 0 
240 1 0.46 70.0 6.90245 18.5983 0 
138 1 0.46 70.0 7.35777 18.6079 0 
50 1 0.46 70.0 7.80993 18.6192 0 
259 1 0.46 70.0 8.04547 18.232 0 
9 1 0.46 70.0 8.25889 18.6324 0 
161 1 0.46 70.0 8.49362 18.2482 0 
281 1 0.46 70.0 8.70469 18.6476 0 
180 1 0.46 70.0 8.93796 18.2664 0 
231 1 0.46 70.0 9.14724 18.6651 0 
175 1 0.46 70.0 9.37763 18.2868 0 
110 1 0.46 70.0 9.81279 18.3076 0 
44 1 0.46 70.0 10.2481 18.3173 0 
81 1 0.46 70.0 10.6837 18.303 0 
191 1 0.46 70.0 11.1203 18.277 0 
263 1 0.46 70.0 11.3552 18.6543 0 
261 1 0.46 70.0 11.5619 18.252 0 
126 1 0.46 70.0 11.8001 18.634 0 
274 1 0.46 70.0 12.0081 18.2305 0 
153 1 0.46 70.0 12.2482 18.6168 0 
130 1 0.46 70.0 12.7 18.6026 0 
227 1 0.46 70.0 13.1556 18.5913 0 
250 1 0.46 70.0 13.6147 18.5841 0 
296 1 0.46 70.0 14.0913 18.5789 0 
21 1 0.46 70.0 14.6839 18.4763 0 
13 1 0.46 70.0 15.7531 18.3687 0 
11 1 0.46 70.0 4.0501 18.7958 0 
168 1 0.46 70.0 5.19015 18.9217 0 
234 1 0.46 70.0 5.67883 18.9338 0 
292 1 0.46 70.0 6.20126 18.9867 0 
74 1 0.46 70.0 6.66621 18.9916 0 
289 1 0.46 70.0 7.12311 18.999 0 
282 1 0.46 70.0 7.57659 19.0076 0 
36 1 0.46 70.0 8.02693 19.0176 0 
223 1 0.46 70.0 8.47442 19.0294 0 
212 1 0.46 70.0 8.91948 19.043 0 
196 1 0.46 70.0 9.58685 18.6838 0 
22 1 0.46 70.0 9.36279 19.0583 0 
193 1 0.46 70.0 10.0279 18.6962 0 
109 1 0.46 70.0 9.80536 19.0715 0 
179 1 0.46 70.0 10.4711 18.6934 0 
34 1 0.46 70.0 10.2506 19.0745 0 
174 1 0.46 70.0 10.6957 19.0655 0 
200 1 0.46 70.0 10.9129 18.6762 0 
154 1 0.46 70.0 11.1412 19.0499 0 
145 1 0.46 70.0 11.5869 19.0329 0 
254 1 0.46 70.0 12.0343 19.0176 0 
244 1 0.46 70.0 12.4844 19.0047 0 
208 1 0.46 70.0 12.9377 18.9943 0 
23 1 0.46 70.0 13.3946 18.987 0 
79 1 0.46 70.0 13.8608 18.9836 0 
100 1 0.46 70.0 14.3638 18.9476 0 
204 1 0.46 70.0 14.8462 18.9268 0 
80 1 0.46 70.0 15.2786 18.674 0 
102 1 0.46 70.0 15.7064 19.0521 0 
146 1 0.46 70.0 4.47343 19.1568 0 
14 1 0.46 70.0 4.95149 19.3358 0 
113 1 0.46 70.0 5.46474 19.3581 0 
35 1 0.46 70.0 5.94834 19.3684 0 
169 1 0.46 70.0 6.43042 19.3852 0 
95 1 0.46 70.0 6.88938 19.3911 0 
273 1 0.46 70.0 7.34456 19.3973 0 
192 1 0.46 70.0 7.79643 19.4044 0 
40 1 0.46 70.0 8.24545 19.4126 0 
63 1 0.46 70.0 8.69217 19.4221 0 
205 1 0.46 70.0 9.13725 19.433 0 
211 1 0.46 70.0 9.5814 19.4448 0 
173 1 0.46 70.0 10.0281 19.4506 0 
29 1 0.46 70.0 10.4758 19.4478 0 
97 1 0.46 70.0 10.9223 19.4374 0 
142 1 0.46 70.0 11.3694 19.4258 0 
68 1 0.46 70.0 11.817 19.414 0 
98 1 0.46 70.0 12.2663 19.4034 0 
120 1 0.46 70.0 12.7179 19.3947 0 
16 1 0.46 70.0 13.1728 19.3879 0 
216 1 0.46 70.0 13.6319 19.3829 0 
156 1 0.46 70.0 14.1149 19.3703 0 
17 1 0.46 70.0 14.6189 19.3647 0 
270 1 0.46 70.0 15.1813 19.2853 0 
1 1 0.46 70.0 4.08264 19.6026 0 
72 1 0.46 70.0 4.64409 19.7368 0 
2 1 0.46 70.0 5.20608 19.7718 0 
194 1 0.46 70.0 5.71664 19.7757 0 
150 1 0.46 70.0 6.19524 19.779 0 
136 1 0.46 70.0 6.65687 19.7843 0 
277 1 0.46 70.0 7.11367 19.7885 0 
135 1 0.46 70.0 7.56707 19.7931 0 
90 1 0.46 70.0 8.0175 19.7981 0 
89 1 0.46 70.0 8.46554 19.8037 0 
278 1 0.46 70.0 8.91197 19.81 0 
152 1 0.46 70.0 9.35777 19.8168 0 
284 1 0.46 70.0 9.80404 19.823 0 
65 1 0.46 70.0 10.2529 19.8237 0 
230 1 0.46 70.0 10.7008 19.8185 0 
214 1 0.46 70.0 11.1488 19.812 0 
133 1 0.46 70.0 11.5969 19.805 0 
140 1 0.46 70.0 12.0458 19.7981 0 
78 1 0.46 70.0 12.4963 19.792 0 
61 1 0.46 70.0 12.9493 19.7868 0 
275 1 0.46 70.0 13.4058 19.7826 0 
30 1 0.46 70.0 13.8694 19.778 0 
19 1 0.46 70.0 14.3579 19.7752 0 
186 1 0.46 70.0 14.8878 19.7634 0 
83 1 0.46 70.0 15.4293 19.7264 0 
265 1 0.46 70.0 15.976 19.5917 0 
