# LAMMPS data file for rigid bodies

303 atoms

1 atom types

0.0 	 20.0 	 xlo xhi 
0.0 	 20.0 	 ylo yhi 
-1.0 	 1.0 	 zlo zhi 

Atoms

171 1 0.46 70.0 8.675 13.7024 0 
24 1 0.46 70.0 9.3053 13.5854 0 
142 1 0.46 70.0 9.89906 13.6032 0 
102 1 0.46 70.0 10.4891 13.5988 0 
208 1 0.46 70.0 11.0943 13.5631 0 
48 1 0.46 70.0 7.43142 14.1443 0 
143 1 0.46 70.0 8.05599 13.8412 0 
21 1 0.46 70.0 9.07031 14.1196 0 
66 1 0.46 70.0 9.61341 14.1187 0 
190 1 0.46 70.0 10.1504 14.1345 0 
252 1 0.46 70.0 10.6846 14.1259 0 
168 1 0.46 70.0 11.2345 14.1063 0 
128 1 0.46 70.0 11.7729 13.8413 0 
230 1 0.46 70.0 12.8571 14.221 0 
84 1 0.46 70.0 6.84924 14.5043 0 
115 1 0.46 70.0 7.94951 14.4145 0 
221 1 0.46 70.0 8.48065 14.2747 0 
33 1 0.46 70.0 8.87694 14.6002 0 
6 1 0.46 70.0 9.38 14.5949 0 
220 1 0.46 70.0 9.87135 14.6138 0 
60 1 0.46 70.0 10.3562 14.6246 0 
233 1 0.46 70.0 10.8332 14.6174 0 
114 1 0.46 70.0 11.3119 14.6094 0 
199 1 0.46 70.0 11.772 14.4255 0 
76 1 0.46 70.0 12.2811 14.2689 0 
301 1 0.46 70.0 6.41418 14.9352 0 
148 1 0.46 70.0 7.37405 14.7312 0 
198 1 0.46 70.0 7.84907 14.9188 0 
75 1 0.46 70.0 8.34223 14.8382 0 
69 1 0.46 70.0 8.76433 15.0568 0 
144 1 0.46 70.0 9.231 15.0574 0 
47 1 0.46 70.0 9.69042 15.0759 0 
249 1 0.46 70.0 10.1509 15.0871 0 
292 1 0.46 70.0 10.6165 15.0819 0 
149 1 0.46 70.0 11.0884 15.0665 0 
184 1 0.46 70.0 11.585 15.0119 0 
298 1 0.46 70.0 12.063 14.8702 0 
202 1 0.46 70.0 12.5791 14.782 0 
217 1 0.46 70.0 13.165 14.7239 0 
140 1 0.46 70.0 13.791 15.0011 0 
129 1 0.46 70.0 5.90779 15.3415 0 
61 1 0.46 70.0 6.45801 15.5019 0 
187 1 0.46 70.0 6.9841 15.1192 0 
290 1 0.46 70.0 7.51589 15.296 0 
284 1 0.46 70.0 8.07417 15.3474 0 
28 1 0.46 70.0 8.52782 15.4489 0 
285 1 0.46 70.0 9.00969 15.4855 0 
86 1 0.46 70.0 9.47003 15.506 0 
248 1 0.46 70.0 9.92909 15.5241 0 
166 1 0.46 70.0 10.3884 15.5238 0 
302 1 0.46 70.0 10.8486 15.5072 0 
265 1 0.46 70.0 11.3229 15.476 0 
87 1 0.46 70.0 11.8014 15.4275 0 
183 1 0.46 70.0 12.2715 15.3296 0 
97 1 0.46 70.0 12.7671 15.2738 0 
272 1 0.46 70.0 13.2848 15.2509 0 
93 1 0.46 70.0 14.1216 15.5173 0 
35 1 0.46 70.0 5.56207 15.8364 0 
193 1 0.46 70.0 6.12867 15.9405 0 
63 1 0.46 70.0 6.94864 15.6305 0 
124 1 0.46 70.0 7.401 15.7576 0 
36 1 0.46 70.0 7.86044 15.7727 0 
16 1 0.46 70.0 8.31243 15.8531 0 
196 1 0.46 70.0 8.77677 15.8815 0 
271 1 0.46 70.0 9.24099 15.9074 0 
222 1 0.46 70.0 9.70016 15.9332 0 
110 1 0.46 70.0 10.1593 15.9442 0 
195 1 0.46 70.0 10.62 15.9308 0 
18 1 0.46 70.0 11.0887 15.9027 0 
29 1 0.46 70.0 11.5688 15.8698 0 
117 1 0.46 70.0 12.0521 15.8228 0 
12 1 0.46 70.0 12.5318 15.7586 0 
3 1 0.46 70.0 13.0361 15.7285 0 
158 1 0.46 70.0 13.5797 15.6775 0 
175 1 0.46 70.0 14.4372 15.9988 0 
39 1 0.46 70.0 4.76175 16.3404 0 
253 1 0.46 70.0 5.34927 16.3627 0 
108 1 0.46 70.0 5.8844 16.408 0 
180 1 0.46 70.0 6.64309 16.0441 0 
152 1 0.46 70.0 7.12449 16.1484 0 
137 1 0.46 70.0 7.60694 16.1993 0 
109 1 0.46 70.0 8.06466 16.2401 0 
51 1 0.46 70.0 8.52746 16.2679 0 
54 1 0.46 70.0 8.98737 16.2907 0 
150 1 0.46 70.0 9.44853 16.3165 0 
176 1 0.46 70.0 9.9196 16.3385 0 
262 1 0.46 70.0 10.3974 16.3362 0 
125 1 0.46 70.0 10.8757 16.3104 0 
270 1 0.46 70.0 11.3509 16.2795 0 
49 1 0.46 70.0 11.8279 16.2515 0 
45 1 0.46 70.0 12.3082 16.2156 0 
89 1 0.46 70.0 12.7943 16.1754 0 
121 1 0.46 70.0 13.3155 16.1493 0 
118 1 0.46 70.0 13.8654 16.1067 0 
7 1 0.46 70.0 15.1093 16.3546 0 
91 1 0.46 70.0 5.03856 16.8594 0 
256 1 0.46 70.0 5.60538 16.8663 0 
281 1 0.46 70.0 6.38906 16.4706 0 
50 1 0.46 70.0 6.87161 16.5462 0 
31 1 0.46 70.0 7.34889 16.5951 0 
9 1 0.46 70.0 7.81396 16.6299 0 
268 1 0.46 70.0 8.2747 16.6517 0 
100 1 0.46 70.0 8.73486 16.6747 0 
42 1 0.46 70.0 9.19406 16.6963 0 
226 1 0.46 70.0 9.66266 16.717 0 
188 1 0.46 70.0 10.1596 16.7259 0 
64 1 0.46 70.0 10.6578 16.7096 0 
77 1 0.46 70.0 11.1397 16.6838 0 
96 1 0.46 70.0 11.6121 16.6569 0 
288 1 0.46 70.0 12.0835 16.6338 0 
43 1 0.46 70.0 12.5596 16.6098 0 
227 1 0.46 70.0 13.0478 16.5801 0 
235 1 0.46 70.0 13.5635 16.5779 0 
138 1 0.46 70.0 14.069 16.5714 0 
151 1 0.46 70.0 14.5787 16.5314 0 
223 1 0.46 70.0 4.66048 17.2835 0 
165 1 0.46 70.0 5.31681 17.3181 0 
132 1 0.46 70.0 6.12674 16.8964 0 
283 1 0.46 70.0 5.86221 17.3208 0 
277 1 0.46 70.0 6.61913 16.9464 0 
59 1 0.46 70.0 7.09737 16.9898 0 
267 1 0.46 70.0 7.56225 17.0183 0 
213 1 0.46 70.0 8.02227 17.0381 0 
179 1 0.46 70.0 8.4811 17.0577 0 
82 1 0.46 70.0 8.94004 17.0776 0 
127 1 0.46 70.0 9.40424 17.0933 0 
52 1 0.46 70.0 9.90051 17.0969 0 
204 1 0.46 70.0 10.4236 17.0924 0 
14 1 0.46 70.0 10.9236 17.079 0 
269 1 0.46 70.0 11.4018 17.0594 0 
107 1 0.46 70.0 11.8688 17.0384 0 
90 1 0.46 70.0 12.3356 17.0205 0 
123 1 0.46 70.0 12.8077 17.0032 0 
225 1 0.46 70.0 13.2962 16.9828 0 
278 1 0.46 70.0 13.831 17.0242 0 
289 1 0.46 70.0 14.3431 17.0309 0 
85 1 0.46 70.0 14.8863 16.9856 0 
245 1 0.46 70.0 15.4819 16.9559 0 
57 1 0.46 70.0 5.00654 17.7435 0 
172 1 0.46 70.0 5.59801 17.7419 0 
131 1 0.46 70.0 6.11679 17.7523 0 
146 1 0.46 70.0 6.36597 17.3487 0 
112 1 0.46 70.0 6.84534 17.3834 0 
250 1 0.46 70.0 7.30646 17.4113 0 
2 1 0.46 70.0 7.76375 17.4291 0 
8 1 0.46 70.0 8.21728 17.4476 0 
303 1 0.46 70.0 8.66577 17.4676 0 
209 1 0.46 70.0 9.1079 17.489 0 
275 1 0.46 70.0 9.54153 17.5098 0 
299 1 0.46 70.0 9.96651 17.5259 0 
101 1 0.46 70.0 10.3868 17.5246 0 
153 1 0.46 70.0 10.8112 17.5029 0 
182 1 0.46 70.0 11.2464 17.4771 0 
264 1 0.46 70.0 11.6908 17.4536 0 
10 1 0.46 70.0 12.1418 17.4335 0 
244 1 0.46 70.0 12.5976 17.4154 0 
23 1 0.46 70.0 13.057 17.398 0 
206 1 0.46 70.0 13.5368 17.381 0 
163 1 0.46 70.0 13.7668 17.7771 0 
207 1 0.46 70.0 14.1181 17.4821 0 
25 1 0.46 70.0 14.6329 17.4837 0 
200 1 0.46 70.0 15.1894 17.4603 0 
1 1 0.46 70.0 4.36889 17.812 0 
20 1 0.46 70.0 5.33293 18.155 0 
259 1 0.46 70.0 5.87025 18.1548 0 
55 1 0.46 70.0 6.60063 17.7786 0 
94 1 0.46 70.0 6.35973 18.1749 0 
161 1 0.46 70.0 6.82386 18.1967 0 
32 1 0.46 70.0 7.06262 17.804 0 
72 1 0.46 70.0 7.28127 18.2085 0 
56 1 0.46 70.0 7.51984 17.818 0 
156 1 0.46 70.0 7.97321 17.8346 0 
155 1 0.46 70.0 8.42215 17.8528 0 
160 1 0.46 70.0 8.86628 17.8728 0 
13 1 0.46 70.0 9.30567 17.8936 0 
34 1 0.46 70.0 9.74106 17.912 0 
95 1 0.46 70.0 10.1768 17.919 0 
186 1 0.46 70.0 10.613 17.9078 0 
154 1 0.46 70.0 11.0492 17.8848 0 
224 1 0.46 70.0 11.4896 17.8612 0 
106 1 0.46 70.0 11.9352 17.8405 0 
295 1 0.46 70.0 12.3857 17.8227 0 
159 1 0.46 70.0 12.6236 18.2139 0 
260 1 0.46 70.0 12.8403 17.8094 0 
65 1 0.46 70.0 13.0788 18.2024 0 
201 1 0.46 70.0 13.2982 17.7946 0 
205 1 0.46 70.0 13.5373 18.1918 0 
236 1 0.46 70.0 14.0107 18.1629 0 
92 1 0.46 70.0 14.4172 17.9478 0 
141 1 0.46 70.0 14.9438 17.9368 0 
293 1 0.46 70.0 15.5787 17.8656 0 
177 1 0.46 70.0 4.21724 18.4433 0 
116 1 0.46 70.0 4.75962 18.2295 0 
113 1 0.46 70.0 5.11123 18.6046 0 
136 1 0.46 70.0 5.63258 18.5591 0 
237 1 0.46 70.0 6.12173 18.5732 0 
104 1 0.46 70.0 6.58798 18.5907 0 
120 1 0.46 70.0 7.04586 18.6001 0 
133 1 0.46 70.0 7.50034 18.611 0 
53 1 0.46 70.0 7.73496 18.2222 0 
297 1 0.46 70.0 7.95161 18.6238 0 
258 1 0.46 70.0 8.18507 18.2381 0 
274 1 0.46 70.0 8.39995 18.6384 0 
243 1 0.46 70.0 8.63149 18.2557 0 
71 1 0.46 70.0 8.84569 18.6544 0 
11 1 0.46 70.0 9.07444 18.2745 0 
73 1 0.46 70.0 9.51453 18.2926 0 
247 1 0.46 70.0 9.95541 18.3033 0 
276 1 0.46 70.0 10.3974 18.3009 0 
228 1 0.46 70.0 10.8385 18.2861 0 
216 1 0.46 70.0 11.0643 18.6635 0 
111 1 0.46 70.0 11.2804 18.2656 0 
22 1 0.46 70.0 11.5095 18.6464 0 
242 1 0.46 70.0 11.7247 18.2455 0 
119 1 0.46 70.0 11.9566 18.6302 0 
218 1 0.46 70.0 12.1724 18.228 0 
147 1 0.46 70.0 12.4064 18.6165 0 
62 1 0.46 70.0 12.8596 18.6051 0 
279 1 0.46 70.0 13.3165 18.5955 0 
135 1 0.46 70.0 13.7808 18.5836 0 
240 1 0.46 70.0 14.2677 18.5416 0 
67 1 0.46 70.0 14.7224 18.4024 0 
296 1 0.46 70.0 15.2752 18.3646 0 
5 1 0.46 70.0 15.9124 18.3808 0 
15 1 0.46 70.0 4.04952 19.0448 0 
80 1 0.46 70.0 4.66661 18.8237 0 
103 1 0.46 70.0 5.39696 18.9767 0 
211 1 0.46 70.0 5.88455 18.9783 0 
167 1 0.46 70.0 6.35367 18.9859 0 
79 1 0.46 70.0 6.81225 18.9929 0 
99 1 0.46 70.0 7.2677 19.001 0 
212 1 0.46 70.0 7.72016 19.0107 0 
181 1 0.46 70.0 8.16995 19.0219 0 
300 1 0.46 70.0 8.61748 19.0344 0 
215 1 0.46 70.0 9.06321 19.0477 0 
238 1 0.46 70.0 9.28939 18.6706 0 
162 1 0.46 70.0 9.50728 19.0606 0 
38 1 0.46 70.0 9.73186 18.6833 0 
122 1 0.46 70.0 9.95257 19.0671 0 
68 1 0.46 70.0 10.1759 18.6863 0 
282 1 0.46 70.0 10.3985 19.0643 0 
210 1 0.46 70.0 10.62 18.6785 0 
254 1 0.46 70.0 10.8439 19.0542 0 
27 1 0.46 70.0 11.2904 19.0413 0 
126 1 0.46 70.0 11.738 19.028 0 
280 1 0.46 70.0 12.1874 19.0159 0 
98 1 0.46 70.0 12.6393 19.0055 0 
241 1 0.46 70.0 13.0944 18.9966 0 
231 1 0.46 70.0 13.5532 18.9889 0 
17 1 0.46 70.0 14.0285 18.9716 0 
170 1 0.46 70.0 14.5239 18.9288 0 
58 1 0.46 70.0 15.0153 18.841 0 
263 1 0.46 70.0 15.5796 18.8413 0 
291 1 0.46 70.0 4.55177 19.3197 0 
157 1 0.46 70.0 5.0721 19.3123 0 
178 1 0.46 70.0 5.6231 19.3858 0 
185 1 0.46 70.0 6.11575 19.3837 0 
197 1 0.46 70.0 6.57898 19.3867 0 
251 1 0.46 70.0 7.03597 19.3925 0 
266 1 0.46 70.0 7.48978 19.3993 0 
70 1 0.46 70.0 7.94087 19.4071 0 
232 1 0.46 70.0 8.38976 19.4159 0 
26 1 0.46 70.0 8.83701 19.4254 0 
246 1 0.46 70.0 9.28325 19.4356 0 
130 1 0.46 70.0 9.7284 19.4443 0 
294 1 0.46 70.0 10.1754 19.4455 0 
4 1 0.46 70.0 10.6215 19.439 0 
44 1 0.46 70.0 11.069 19.4301 0 
255 1 0.46 70.0 11.5172 19.4206 0 
169 1 0.46 70.0 11.9665 19.4113 0 
40 1 0.46 70.0 12.4176 19.4029 0 
189 1 0.46 70.0 12.8714 19.3955 0 
81 1 0.46 70.0 13.3282 19.3889 0 
139 1 0.46 70.0 13.7913 19.3818 0 
261 1 0.46 70.0 14.2766 19.3652 0 
105 1 0.46 70.0 14.7801 19.3362 0 
219 1 0.46 70.0 15.2989 19.2927 0 
192 1 0.46 70.0 15.9796 19.2735 0 
145 1 0.46 70.0 4.16642 19.6898 0 
78 1 0.46 70.0 4.824 19.7601 0 
194 1 0.46 70.0 5.35099 19.7709 0 
257 1 0.46 70.0 5.87055 19.7787 0 
30 1 0.46 70.0 6.34629 19.7818 0 
287 1 0.46 70.0 6.80485 19.7855 0 
229 1 0.46 70.0 7.26007 19.7898 0 
286 1 0.46 70.0 7.71241 19.7946 0 
74 1 0.46 70.0 8.16236 19.7999 0 
273 1 0.46 70.0 8.61044 19.8055 0 
191 1 0.46 70.0 9.05711 19.8115 0 
239 1 0.46 70.0 9.50276 19.8189 0 
41 1 0.46 70.0 9.95145 19.8213 0 
19 1 0.46 70.0 10.4006 19.82 0 
37 1 0.46 70.0 10.8474 19.8136 0 
214 1 0.46 70.0 11.2953 19.8081 0 
173 1 0.46 70.0 11.7444 19.8024 0 
203 1 0.46 70.0 12.1949 19.7969 0 
164 1 0.46 70.0 12.6475 19.7917 0 
134 1 0.46 70.0 13.1027 19.7871 0 
234 1 0.46 70.0 13.561 19.7825 0 
174 1 0.46 70.0 14.0295 19.7774 0 
46 1 0.46 70.0 14.5222 19.7729 0 
83 1 0.46 70.0 15.0437 19.761 0 
88 1 0.46 70.0 15.6134 19.7181 0 
