# LAMMPS data file for rigid bodies

303 atoms

1 atom types

0.0 	 20.0 	 xlo xhi 
0.0 	 20.0 	 ylo yhi 
-1.0 	 1.0 	 zlo zhi 

Atoms

147 1 0.46 70.0 10.1932 13.3018 0 
84 1 0.46 70.0 8.13802 13.7669 0 
163 1 0.46 70.0 8.88918 13.7026 0 
103 1 0.46 70.0 9.37989 13.3659 0 
149 1 0.46 70.0 9.81806 13.7316 0 
234 1 0.46 70.0 10.7387 13.5499 0 
225 1 0.46 70.0 11.6681 13.5132 0 
81 1 0.46 70.0 7.63419 14.1423 0 
260 1 0.46 70.0 8.56181 14.1386 0 
238 1 0.46 70.0 9.37959 14.0273 0 
60 1 0.46 70.0 10.3115 13.9455 0 
99 1 0.46 70.0 10.7647 14.1899 0 
278 1 0.46 70.0 11.2014 13.8641 0 
282 1 0.46 70.0 11.7186 14.1063 0 
253 1 0.46 70.0 12.3115 13.8243 0 
293 1 0.46 70.0 6.74534 14.349 0 
52 1 0.46 70.0 7.26138 14.5804 0 
227 1 0.46 70.0 8.12851 14.4382 0 
291 1 0.46 70.0 9.01935 14.3802 0 
255 1 0.46 70.0 9.47994 14.5929 0 
119 1 0.46 70.0 9.87563 14.2813 0 
223 1 0.46 70.0 10.3412 14.5013 0 
295 1 0.46 70.0 11.235 14.4161 0 
93 1 0.46 70.0 11.6991 14.6423 0 
269 1 0.46 70.0 12.21 14.3763 0 
220 1 0.46 70.0 12.767 14.4305 0 
203 1 0.46 70.0 6.2766 14.8051 0 
8 1 0.46 70.0 6.83282 14.9746 0 
174 1 0.46 70.0 7.74738 14.7895 0 
76 1 0.46 70.0 8.22598 14.9914 0 
158 1 0.46 70.0 8.61579 14.6882 0 
216 1 0.46 70.0 9.08823 14.8988 0 
267 1 0.46 70.0 9.54288 15.0982 0 
113 1 0.46 70.0 9.9374 14.8063 0 
232 1 0.46 70.0 10.3877 15.0099 0 
111 1 0.46 70.0 10.7971 14.7159 0 
143 1 0.46 70.0 11.2495 14.9286 0 
199 1 0.46 70.0 12.1637 14.8783 0 
186 1 0.46 70.0 12.6572 15.0039 0 
105 1 0.46 70.0 13.2478 14.76 0 
10 1 0.46 70.0 13.7552 15.0875 0 
34 1 0.46 70.0 5.84432 15.2502 0 
236 1 0.46 70.0 6.42712 15.3854 0 
256 1 0.46 70.0 6.94779 15.511 0 
215 1 0.46 70.0 7.34291 15.1377 0 
168 1 0.46 70.0 7.83499 15.3069 0 
181 1 0.46 70.0 8.31397 15.4831 0 
288 1 0.46 70.0 8.69999 15.1923 0 
11 1 0.46 70.0 9.16 15.3847 0 
206 1 0.46 70.0 9.99017 15.2957 0 
40 1 0.46 70.0 10.4287 15.4899 0 
97 1 0.46 70.0 10.8289 15.2104 0 
133 1 0.46 70.0 11.2689 15.413 0 
41 1 0.46 70.0 11.7012 15.1434 0 
20 1 0.46 70.0 12.1601 15.3606 0 
151 1 0.46 70.0 12.6159 15.5428 0 
229 1 0.46 70.0 13.0936 15.3006 0 
42 1 0.46 70.0 14.3247 15.4123 0 
283 1 0.46 70.0 5.4199 15.7028 0 
176 1 0.46 70.0 6.04093 15.7983 0 
110 1 0.46 70.0 6.57122 15.9081 0 
184 1 0.46 70.0 7.44555 15.6348 0 
251 1 0.46 70.0 7.93149 15.7822 0 
138 1 0.46 70.0 8.40347 15.9444 0 
162 1 0.46 70.0 8.78023 15.665 0 
142 1 0.46 70.0 9.22968 15.8472 0 
87 1 0.46 70.0 9.60446 15.5745 0 
166 1 0.46 70.0 10.0408 15.7619 0 
209 1 0.46 70.0 10.4668 15.9505 0 
289 1 0.46 70.0 10.8573 15.6809 0 
190 1 0.46 70.0 11.2848 15.8757 0 
233 1 0.46 70.0 11.7101 15.6171 0 
35 1 0.46 70.0 12.1504 15.8311 0 
13 1 0.46 70.0 13.0453 15.8396 0 
66 1 0.46 70.0 13.5244 15.5932 0 
126 1 0.46 70.0 13.9838 15.8514 0 
146 1 0.46 70.0 4.97008 16.1803 0 
262 1 0.46 70.0 5.66922 16.2109 0 
208 1 0.46 70.0 6.2093 16.3098 0 
120 1 0.46 70.0 7.06942 16.0013 0 
92 1 0.46 70.0 6.71134 16.3958 0 
50 1 0.46 70.0 7.55334 16.0967 0 
145 1 0.46 70.0 8.02967 16.2316 0 
154 1 0.46 70.0 8.85737 16.1181 0 
188 1 0.46 70.0 8.48729 16.3948 0 
64 1 0.46 70.0 9.29473 16.3005 0 
268 1 0.46 70.0 9.66543 16.0304 0 
136 1 0.46 70.0 10.0899 16.2179 0 
128 1 0.46 70.0 10.5082 16.406 0 
179 1 0.46 70.0 10.8861 16.1389 0 
246 1 0.46 70.0 11.305 16.3332 0 
192 1 0.46 70.0 11.7118 16.0763 0 
95 1 0.46 70.0 12.1389 16.2906 0 
207 1 0.46 70.0 12.5882 16.0366 0 
104 1 0.46 70.0 13.0189 16.3476 0 
54 1 0.46 70.0 13.4838 16.1217 0 
12 1 0.46 70.0 13.9546 16.3688 0 
228 1 0.46 70.0 14.5075 16.1099 0 
135 1 0.46 70.0 5.30549 16.6232 0 
155 1 0.46 70.0 5.84829 16.7136 0 
70 1 0.46 70.0 6.35599 16.7931 0 
182 1 0.46 70.0 6.83858 16.8589 0 
226 1 0.46 70.0 7.1926 16.4613 0 
263 1 0.46 70.0 7.6621 16.5418 0 
235 1 0.46 70.0 8.11918 16.6792 0 
177 1 0.46 70.0 8.55601 16.8448 0 
172 1 0.46 70.0 8.92369 16.5696 0 
122 1 0.46 70.0 9.7175 16.4845 0 
298 1 0.46 70.0 9.34872 16.7518 0 
212 1 0.46 70.0 10.1355 16.6718 0 
124 1 0.46 70.0 10.55 16.8593 0 
78 1 0.46 70.0 10.9247 16.5932 0 
249 1 0.46 70.0 11.3403 16.7874 0 
150 1 0.46 70.0 11.7248 16.5328 0 
90 1 0.46 70.0 12.1456 16.7484 0 
63 1 0.46 70.0 12.5705 16.4962 0 
108 1 0.46 70.0 13.0039 16.8406 0 
284 1 0.46 70.0 13.4486 16.6198 0 
14 1 0.46 70.0 13.8916 16.8579 0 
281 1 0.46 70.0 14.4052 16.6926 0 
274 1 0.46 70.0 14.9634 16.5372 0 
129 1 0.46 70.0 4.83889 16.9565 0 
139 1 0.46 70.0 5.44857 17.1192 0 
178 1 0.46 70.0 5.97578 17.1914 0 
51 1 0.46 70.0 6.46248 17.258 0 
239 1 0.46 70.0 6.92256 17.3107 0 
160 1 0.46 70.0 7.30124 16.9069 0 
252 1 0.46 70.0 7.75334 16.9865 0 
77 1 0.46 70.0 8.19105 17.1267 0 
270 1 0.46 70.0 8.61869 17.2923 0 
61 1 0.46 70.0 8.98146 17.0183 0 
112 1 0.46 70.0 9.40186 17.2012 0 
273 1 0.46 70.0 9.76683 16.9368 0 
98 1 0.46 70.0 10.1805 17.1246 0 
31 1 0.46 70.0 10.5889 17.3126 0 
65 1 0.46 70.0 10.9614 17.0431 0 
240 1 0.46 70.0 11.3727 17.2399 0 
6 1 0.46 70.0 11.7535 16.9865 0 
300 1 0.46 70.0 12.1637 17.2063 0 
68 1 0.46 70.0 12.5599 16.9512 0 
74 1 0.46 70.0 13.0185 17.3291 0 
107 1 0.46 70.0 13.4186 17.1109 0 
185 1 0.46 70.0 13.8229 17.3263 0 
237 1 0.46 70.0 14.2966 17.2228 0 
83 1 0.46 70.0 14.8025 17.1268 0 
191 1 0.46 70.0 15.3695 17.055 0 
32 1 0.46 70.0 4.44029 17.4407 0 
277 1 0.46 70.0 5.0496 17.5028 0 
44 1 0.46 70.0 5.60621 17.5928 0 
5 1 0.46 70.0 6.10018 17.6559 0 
118 1 0.46 70.0 6.56228 17.7124 0 
152 1 0.46 70.0 7.0166 17.7585 0 
299 1 0.46 70.0 7.37735 17.3554 0 
285 1 0.46 70.0 7.82635 17.4299 0 
27 1 0.46 70.0 8.26048 17.5711 0 
173 1 0.46 70.0 8.68641 17.7372 0 
202 1 0.46 70.0 9.04111 17.4631 0 
79 1 0.46 70.0 9.45619 17.6507 0 
25 1 0.46 70.0 9.81581 17.3876 0 
287 1 0.46 70.0 10.2241 17.578 0 
96 1 0.46 70.0 10.62 17.7694 0 
39 1 0.46 70.0 10.9955 17.4863 0 
175 1 0.46 70.0 11.4006 17.6943 0 
261 1 0.46 70.0 11.7797 17.4373 0 
164 1 0.46 70.0 12.2085 17.7016 0 
153 1 0.46 70.0 12.5713 17.4007 0 
247 1 0.46 70.0 13.5321 17.6817 0 
37 1 0.46 70.0 14.0654 17.7166 0 
102 1 0.46 70.0 14.5791 17.6627 0 
55 1 0.46 70.0 15.1094 17.6179 0 
250 1 0.46 70.0 15.7077 17.6253 0 
1 1 0.46 70.0 4.67728 17.9653 0 
24 1 0.46 70.0 5.26361 17.9885 0 
180 1 0.46 70.0 5.77463 18.0591 0 
28 1 0.46 70.0 6.24616 18.1111 0 
137 1 0.46 70.0 6.70205 18.1545 0 
231 1 0.46 70.0 7.46746 17.7989 0 
221 1 0.46 70.0 7.15345 18.1949 0 
183 1 0.46 70.0 7.91291 17.8672 0 
130 1 0.46 70.0 8.34648 18.0086 0 
4 1 0.46 70.0 8.72818 18.2098 0 
241 1 0.46 70.0 9.09334 17.9047 0 
114 1 0.46 70.0 9.50825 18.098 0 
196 1 0.46 70.0 9.86875 17.8376 0 
109 1 0.46 70.0 10.2717 18.052 0 
193 1 0.46 70.0 11.0257 17.9166 0 
9 1 0.46 70.0 11.7983 17.8756 0 
264 1 0.46 70.0 12.6401 17.8371 0 
296 1 0.46 70.0 12.8908 18.2132 0 
46 1 0.46 70.0 13.0878 17.78 0 
242 1 0.46 70.0 13.3456 18.1606 0 
245 1 0.46 70.0 13.8021 18.1103 0 
157 1 0.46 70.0 14.3243 18.1121 0 
33 1 0.46 70.0 14.8737 18.1238 0 
56 1 0.46 70.0 15.4226 18.1302 0 
26 1 0.46 70.0 4.28839 18.425 0 
22 1 0.46 70.0 4.96712 18.4142 0 
131 1 0.46 70.0 5.48796 18.4657 0 
294 1 0.46 70.0 5.97502 18.516 0 
53 1 0.46 70.0 6.43838 18.5517 0 
62 1 0.46 70.0 6.89435 18.5842 0 
244 1 0.46 70.0 7.34719 18.611 0 
210 1 0.46 70.0 7.60012 18.2311 0 
117 1 0.46 70.0 7.79578 18.6447 0 
205 1 0.46 70.0 8.03811 18.2901 0 
49 1 0.46 70.0 8.27474 18.645 0 
43 1 0.46 70.0 8.71469 18.6535 0 
218 1 0.46 70.0 9.14925 18.326 0 
165 1 0.46 70.0 9.56528 18.5875 0 
195 1 0.46 70.0 9.90411 18.2812 0 
280 1 0.46 70.0 10.4209 18.607 0 
217 1 0.46 70.0 10.6719 18.2349 0 
159 1 0.46 70.0 10.8606 18.6598 0 
140 1 0.46 70.0 11.1086 18.3118 0 
230 1 0.46 70.0 11.5384 18.2393 0 
7 1 0.46 70.0 11.767 18.6394 0 
297 1 0.46 70.0 11.9926 18.2553 0 
72 1 0.46 70.0 12.4321 18.2289 0 
290 1 0.46 70.0 12.2215 18.6343 0 
275 1 0.46 70.0 12.6735 18.6147 0 
169 1 0.46 70.0 13.1308 18.599 0 
201 1 0.46 70.0 13.5871 18.557 0 
213 1 0.46 70.0 14.0567 18.5226 0 
257 1 0.46 70.0 14.5738 18.5211 0 
266 1 0.46 70.0 15.1947 18.6246 0 
75 1 0.46 70.0 15.821 18.5752 0 
286 1 0.46 70.0 4.68339 18.8405 0 
141 1 0.46 70.0 5.21853 18.8882 0 
47 1 0.46 70.0 5.71517 18.9251 0 
272 1 0.46 70.0 6.1913 18.9535 0 
48 1 0.46 70.0 6.65024 18.9767 0 
115 1 0.46 70.0 7.10601 18.9971 0 
17 1 0.46 70.0 7.55992 19.0175 0 
271 1 0.46 70.0 8.01978 19.0252 0 
58 1 0.46 70.0 8.46899 19.0392 0 
89 1 0.46 70.0 8.90591 19.066 0 
265 1 0.46 70.0 9.14868 18.7226 0 
187 1 0.46 70.0 9.36049 19.0727 0 
101 1 0.46 70.0 9.78266 19.0552 0 
156 1 0.46 70.0 9.9972 18.6861 0 
200 1 0.46 70.0 10.2275 19.0489 0 
29 1 0.46 70.0 10.6547 19.0397 0 
18 1 0.46 70.0 11.0997 19.0414 0 
38 1 0.46 70.0 11.3271 18.6674 0 
85 1 0.46 70.0 11.5529 19.0396 0 
116 1 0.46 70.0 12.0005 19.0254 0 
19 1 0.46 70.0 12.4547 19.0156 0 
2 1 0.46 70.0 12.9093 19.0016 0 
224 1 0.46 70.0 13.3667 18.9893 0 
23 1 0.46 70.0 13.8245 18.9571 0 
134 1 0.46 70.0 14.2991 18.9386 0 
3 1 0.46 70.0 14.8061 18.9338 0 
121 1 0.46 70.0 15.5624 19.094 0 
100 1 0.46 70.0 4.25351 19.1429 0 
21 1 0.46 70.0 4.92265 19.3077 0 
292 1 0.46 70.0 5.44973 19.3426 0 
167 1 0.46 70.0 5.94195 19.3593 0 
91 1 0.46 70.0 6.41047 19.3736 0 
171 1 0.46 70.0 6.86836 19.3872 0 
194 1 0.46 70.0 7.3239 19.3996 0 
198 1 0.46 70.0 7.77981 19.4085 0 
214 1 0.46 70.0 8.2306 19.4188 0 
148 1 0.46 70.0 8.67677 19.4352 0 
189 1 0.46 70.0 9.12601 19.4435 0 
258 1 0.46 70.0 9.57102 19.4482 0 
222 1 0.46 70.0 10.0088 19.4362 0 
170 1 0.46 70.0 10.4471 19.433 0 
204 1 0.46 70.0 10.8847 19.4254 0 
144 1 0.46 70.0 11.3303 19.4231 0 
259 1 0.46 70.0 11.7809 19.4188 0 
248 1 0.46 70.0 12.2321 19.4094 0 
106 1 0.46 70.0 12.6866 19.4008 0 
254 1 0.46 70.0 13.1426 19.3913 0 
127 1 0.46 70.0 13.6013 19.3824 0 
69 1 0.46 70.0 14.0651 19.3634 0 
302 1 0.46 70.0 14.5546 19.3588 0 
301 1 0.46 70.0 15.0885 19.3226 0 
303 1 0.46 70.0 4.06045 19.6659 0 
67 1 0.46 70.0 4.62972 19.7189 0 
197 1 0.46 70.0 5.18489 19.7649 0 
279 1 0.46 70.0 5.69623 19.7733 0 
161 1 0.46 70.0 6.17528 19.7771 0 
82 1 0.46 70.0 6.63455 19.7813 0 
276 1 0.46 70.0 7.09086 19.788 0 
86 1 0.46 70.0 7.54586 19.7942 0 
45 1 0.46 70.0 7.99781 19.8007 0 
132 1 0.46 70.0 8.44698 19.8094 0 
80 1 0.46 70.0 8.89696 19.816 0 
36 1 0.46 70.0 9.34499 19.8207 0 
125 1 0.46 70.0 9.78981 19.8216 0 
219 1 0.46 70.0 10.2295 19.8169 0 
211 1 0.46 70.0 10.6688 19.8123 0 
94 1 0.46 70.0 11.1107 19.8079 0 
15 1 0.46 70.0 11.5578 19.8051 0 
71 1 0.46 70.0 12.009 19.801 0 
243 1 0.46 70.0 12.4619 19.7951 0 
30 1 0.46 70.0 12.917 19.7895 0 
73 1 0.46 70.0 13.3739 19.784 0 
57 1 0.46 70.0 13.8333 19.7789 0 
59 1 0.46 70.0 14.3093 19.7749 0 
16 1 0.46 70.0 14.8251 19.7701 0 
88 1 0.46 70.0 15.3857 19.7303 0 
123 1 0.46 70.0 15.9326 19.5715 0 
