# LAMMPS data file for rigid bodies

303 atoms

1 atom types

0.0 	 20.0 	 xlo xhi 
0.0 	 20.0 	 ylo yhi 
-1.0 	 1.0 	 zlo zhi 

Atoms

129 1 0.46 70.0 8.96884 13.5513 0 
205 1 0.46 70.0 9.57205 13.6122 0 
123 1 0.46 70.0 10.1448 13.6894 0 
3 1 0.46 70.0 10.7048 13.7375 0 
231 1 0.46 70.0 7.62508 14.0893 0 
110 1 0.46 70.0 8.29991 13.8566 0 
249 1 0.46 70.0 8.82902 14.0958 0 
39 1 0.46 70.0 9.36647 14.1338 0 
274 1 0.46 70.0 9.87993 14.1976 0 
94 1 0.46 70.0 11.2798 13.7841 0 
258 1 0.46 70.0 11.8927 13.8542 0 
1 1 0.46 70.0 6.99543 14.4136 0 
279 1 0.46 70.0 8.11057 14.4025 0 
131 1 0.46 70.0 8.61253 14.5577 0 
263 1 0.46 70.0 9.1283 14.5985 0 
246 1 0.46 70.0 9.62104 14.6555 0 
302 1 0.46 70.0 10.3908 14.2474 0 
5 1 0.46 70.0 10.8957 14.2907 0 
33 1 0.46 70.0 11.4069 14.3389 0 
243 1 0.46 70.0 11.925 14.4177 0 
177 1 0.46 70.0 12.4569 14.2928 0 
299 1 0.46 70.0 13.045 14.3979 0 
132 1 0.46 70.0 6.53745 14.8368 0 
138 1 0.46 70.0 7.08807 15.0467 0 
169 1 0.46 70.0 7.50078 14.6729 0 
47 1 0.46 70.0 7.95567 14.8995 0 
96 1 0.46 70.0 8.42817 15.0052 0 
26 1 0.46 70.0 8.9095 15.0389 0 
277 1 0.46 70.0 9.38019 15.0879 0 
75 1 0.46 70.0 10.1116 14.7064 0 
152 1 0.46 70.0 10.597 14.7532 0 
248 1 0.46 70.0 11.0775 14.7981 0 
293 1 0.46 70.0 11.5641 14.8491 0 
45 1 0.46 70.0 12.0683 14.9077 0 
147 1 0.46 70.0 12.5737 14.8692 0 
255 1 0.46 70.0 13.1055 14.9603 0 
61 1 0.46 70.0 13.6869 14.9496 0 
251 1 0.46 70.0 6.03514 15.2344 0 
38 1 0.46 70.0 6.58024 15.4147 0 
8 1 0.46 70.0 7.59857 15.2578 0 
116 1 0.46 70.0 8.12802 15.3874 0 
201 1 0.46 70.0 8.64539 15.4476 0 
15 1 0.46 70.0 9.12561 15.4955 0 
167 1 0.46 70.0 9.59316 15.5427 0 
182 1 0.46 70.0 9.85176 15.1359 0 
191 1 0.46 70.0 10.3218 15.1836 0 
130 1 0.46 70.0 10.7882 15.2296 0 
40 1 0.46 70.0 11.2581 15.2754 0 
298 1 0.46 70.0 11.7381 15.3197 0 
256 1 0.46 70.0 12.2371 15.372 0 
161 1 0.46 70.0 12.7299 15.3947 0 
165 1 0.46 70.0 13.246 15.466 0 
198 1 0.46 70.0 13.7813 15.5236 0 
175 1 0.46 70.0 14.3515 15.5173 0 
153 1 0.46 70.0 5.67408 15.7163 0 
105 1 0.46 70.0 6.23542 15.8427 0 
60 1 0.46 70.0 7.06543 15.5686 0 
99 1 0.46 70.0 6.74123 15.9713 0 
172 1 0.46 70.0 7.50788 15.7273 0 
9 1 0.46 70.0 7.95783 15.8132 0 
173 1 0.46 70.0 8.41595 15.8451 0 
101 1 0.46 70.0 8.87789 15.8878 0 
162 1 0.46 70.0 9.33795 15.9303 0 
25 1 0.46 70.0 9.79599 15.977 0 
259 1 0.46 70.0 10.0577 15.59 0 
257 1 0.46 70.0 10.5196 15.6377 0 
48 1 0.46 70.0 10.978 15.6842 0 
136 1 0.46 70.0 11.4417 15.7271 0 
206 1 0.46 70.0 11.9178 15.7634 0 
20 1 0.46 70.0 12.416 15.8302 0 
218 1 0.46 70.0 12.9064 15.8836 0 
225 1 0.46 70.0 13.4224 15.9491 0 
84 1 0.46 70.0 4.97761 16.1115 0 
242 1 0.46 70.0 5.52146 16.2578 0 
283 1 0.46 70.0 6.03051 16.3238 0 
59 1 0.46 70.0 6.51104 16.4084 0 
270 1 0.46 70.0 7.21117 16.1067 0 
272 1 0.46 70.0 7.68219 16.1966 0 
297 1 0.46 70.0 8.15205 16.2392 0 
187 1 0.46 70.0 8.61091 16.2701 0 
118 1 0.46 70.0 9.06894 16.3068 0 
91 1 0.46 70.0 9.52654 16.3486 0 
13 1 0.46 70.0 9.98568 16.3957 0 
65 1 0.46 70.0 10.2533 16.0237 0 
159 1 0.46 70.0 10.4417 16.4442 0 
239 1 0.46 70.0 10.7094 16.072 0 
290 1 0.46 70.0 11.1657 16.1211 0 
113 1 0.46 70.0 11.6238 16.1598 0 
281 1 0.46 70.0 12.0931 16.1889 0 
18 1 0.46 70.0 12.5939 16.2859 0 
180 1 0.46 70.0 13.0836 16.349 0 
62 1 0.46 70.0 13.589 16.4137 0 
7 1 0.46 70.0 13.978 16.0432 0 
86 1 0.46 70.0 14.5519 16.0875 0 
166 1 0.46 70.0 4.58591 16.7093 0 
19 1 0.46 70.0 5.19161 16.7164 0 
154 1 0.46 70.0 5.73736 16.7741 0 
181 1 0.46 70.0 6.23804 16.8306 0 
31 1 0.46 70.0 6.9698 16.5098 0 
66 1 0.46 70.0 7.42733 16.5811 0 
92 1 0.46 70.0 7.88845 16.622 0 
289 1 0.46 70.0 8.34675 16.6538 0 
17 1 0.46 70.0 8.80385 16.6844 0 
74 1 0.46 70.0 9.26025 16.7204 0 
157 1 0.46 70.0 9.71671 16.7621 0 
37 1 0.46 70.0 10.1751 16.8127 0 
97 1 0.46 70.0 10.6287 16.8628 0 
230 1 0.46 70.0 10.8961 16.4935 0 
220 1 0.46 70.0 11.3504 16.5438 0 
121 1 0.46 70.0 11.8063 16.5812 0 
106 1 0.46 70.0 12.2664 16.6115 0 
226 1 0.46 70.0 12.7861 16.7359 0 
44 1 0.46 70.0 13.2577 16.8104 0 
291 1 0.46 70.0 13.741 16.8727 0 
71 1 0.46 70.0 14.1193 16.5656 0 
144 1 0.46 70.0 14.6225 16.6424 0 
148 1 0.46 70.0 15.1507 16.454 0 
63 1 0.46 70.0 4.88345 17.2025 0 
55 1 0.46 70.0 5.44666 17.2119 0 
93 1 0.46 70.0 5.96622 17.2505 0 
286 1 0.46 70.0 6.4489 17.3067 0 
260 1 0.46 70.0 6.70945 16.9075 0 
178 1 0.46 70.0 7.17024 16.9713 0 
295 1 0.46 70.0 7.6283 17.0073 0 
210 1 0.46 70.0 8.0856 17.0353 0 
224 1 0.46 70.0 8.54159 17.0641 0 
67 1 0.46 70.0 8.99607 17.0942 0 
90 1 0.46 70.0 9.44967 17.1295 0 
285 1 0.46 70.0 9.90501 17.1713 0 
100 1 0.46 70.0 10.3664 17.2291 0 
262 1 0.46 70.0 11.0807 16.9136 0 
254 1 0.46 70.0 10.817 17.281 0 
89 1 0.46 70.0 11.5316 16.9653 0 
232 1 0.46 70.0 11.9828 17.0022 0 
247 1 0.46 70.0 12.4383 17.0295 0 
28 1 0.46 70.0 12.9925 17.2015 0 
288 1 0.46 70.0 13.4457 17.2763 0 
53 1 0.46 70.0 13.925 17.2941 0 
158 1 0.46 70.0 14.3659 17.1101 0 
269 1 0.46 70.0 14.9222 17.0919 0 
117 1 0.46 70.0 15.5119 17.0332 0 
156 1 0.46 70.0 4.48864 17.6111 0 
194 1 0.46 70.0 5.15698 17.6566 0 
127 1 0.46 70.0 5.69746 17.6671 0 
109 1 0.46 70.0 6.19143 17.7089 0 
124 1 0.46 70.0 6.66062 17.754 0 
176 1 0.46 70.0 6.91342 17.3617 0 
24 1 0.46 70.0 7.37142 17.3955 0 
137 1 0.46 70.0 7.82822 17.4192 0 
14 1 0.46 70.0 8.28315 17.4442 0 
207 1 0.46 70.0 8.73613 17.4708 0 
81 1 0.46 70.0 9.18722 17.5001 0 
212 1 0.46 70.0 9.63781 17.5338 0 
155 1 0.46 70.0 10.091 17.5749 0 
252 1 0.46 70.0 10.5652 17.6479 0 
104 1 0.46 70.0 11.0131 17.7061 0 
64 1 0.46 70.0 11.2647 17.3347 0 
204 1 0.46 70.0 11.4589 17.7683 0 
145 1 0.46 70.0 11.7104 17.3886 0 
35 1 0.46 70.0 12.1583 17.42 0 
164 1 0.46 70.0 12.6107 17.439 0 
171 1 0.46 70.0 13.2458 17.6906 0 
32 1 0.46 70.0 13.7044 17.7152 0 
95 1 0.46 70.0 14.2032 17.6708 0 
140 1 0.46 70.0 14.6893 17.5774 0 
70 1 0.46 70.0 15.2531 17.5583 0 
284 1 0.46 70.0 4.18378 18.1501 0 
227 1 0.46 70.0 4.83663 18.0695 0 
301 1 0.46 70.0 5.43151 18.083 0 
77 1 0.46 70.0 5.93677 18.1129 0 
240 1 0.46 70.0 6.41197 18.1489 0 
264 1 0.46 70.0 6.87046 18.179 0 
2 1 0.46 70.0 7.11869 17.786 0 
11 1 0.46 70.0 7.32688 18.1948 0 
16 1 0.46 70.0 7.57519 17.8057 0 
160 1 0.46 70.0 7.78038 18.2121 0 
189 1 0.46 70.0 8.02923 17.8268 0 
125 1 0.46 70.0 8.48076 17.8495 0 
49 1 0.46 70.0 8.92986 17.8744 0 
128 1 0.46 70.0 9.377 17.9019 0 
119 1 0.46 70.0 9.82335 17.9333 0 
174 1 0.46 70.0 10.2736 17.97 0 
233 1 0.46 70.0 10.7804 18.0815 0 
68 1 0.46 70.0 11.2235 18.1515 0 
245 1 0.46 70.0 11.9085 17.8059 0 
236 1 0.46 70.0 11.6724 18.1951 0 
139 1 0.46 70.0 12.1269 18.2104 0 
112 1 0.46 70.0 12.362 17.8231 0 
296 1 0.46 70.0 12.8184 17.8263 0 
250 1 0.46 70.0 12.5851 18.2161 0 
34 1 0.46 70.0 13.0457 18.2082 0 
41 1 0.46 70.0 13.4932 18.1345 0 
22 1 0.46 70.0 13.9671 18.1146 0 
170 1 0.46 70.0 14.4693 18.075 0 
217 1 0.46 70.0 14.9954 18.0348 0 
56 1 0.46 70.0 15.6227 17.9889 0 
273 1 0.46 70.0 4.58366 18.5497 0 
146 1 0.46 70.0 5.16257 18.4871 0 
292 1 0.46 70.0 5.68273 18.5188 0 
188 1 0.46 70.0 6.16567 18.5467 0 
211 1 0.46 70.0 6.62605 18.5734 0 
193 1 0.46 70.0 7.08287 18.5865 0 
268 1 0.46 70.0 7.53639 18.6002 0 
186 1 0.46 70.0 7.98672 18.6154 0 
216 1 0.46 70.0 8.23094 18.231 0 
6 1 0.46 70.0 8.43394 18.6322 0 
208 1 0.46 70.0 8.67861 18.2519 0 
51 1 0.46 70.0 8.87812 18.6512 0 
235 1 0.46 70.0 9.12335 18.2749 0 
57 1 0.46 70.0 9.56507 18.3006 0 
303 1 0.46 70.0 10.0068 18.3271 0 
222 1 0.46 70.0 10.4513 18.353 0 
120 1 0.46 70.0 11.0202 18.5462 0 
229 1 0.46 70.0 11.46 18.5933 0 
253 1 0.46 70.0 11.9079 18.6033 0 
300 1 0.46 70.0 12.361 18.6059 0 
223 1 0.46 70.0 12.8193 18.6043 0 
114 1 0.46 70.0 13.2792 18.5946 0 
278 1 0.46 70.0 13.7344 18.544 0 
98 1 0.46 70.0 14.2166 18.5181 0 
29 1 0.46 70.0 14.7302 18.4902 0 
85 1 0.46 70.0 15.3037 18.479 0 
287 1 0.46 70.0 15.9351 18.5209 0 
111 1 0.46 70.0 4.12492 18.8745 0 
43 1 0.46 70.0 4.92927 18.9214 0 
244 1 0.46 70.0 5.43625 18.9299 0 
46 1 0.46 70.0 5.92174 18.9495 0 
196 1 0.46 70.0 6.38589 18.9697 0 
76 1 0.46 70.0 6.84318 18.9813 0 
275 1 0.46 70.0 7.29697 18.9911 0 
195 1 0.46 70.0 7.74752 19.0026 0 
200 1 0.46 70.0 8.19492 19.0155 0 
10 1 0.46 70.0 8.63936 19.0301 0 
50 1 0.46 70.0 9.31915 18.6726 0 
190 1 0.46 70.0 9.08103 19.047 0 
141 1 0.46 70.0 9.75702 18.6955 0 
197 1 0.46 70.0 9.51985 19.0667 0 
78 1 0.46 70.0 10.1946 18.7146 0 
12 1 0.46 70.0 9.95906 19.084 0 
102 1 0.46 70.0 10.6333 18.7195 0 
214 1 0.46 70.0 10.3998 19.0916 0 
88 1 0.46 70.0 10.8411 19.0726 0 
199 1 0.46 70.0 11.26 18.9952 0 
228 1 0.46 70.0 11.6994 19.0002 0 
203 1 0.46 70.0 12.1452 18.9996 0 
42 1 0.46 70.0 12.5971 18.9983 0 
179 1 0.46 70.0 13.0542 18.9942 0 
80 1 0.46 70.0 13.5136 18.9852 0 
163 1 0.46 70.0 13.9736 18.9478 0 
192 1 0.46 70.0 14.4639 18.9262 0 
54 1 0.46 70.0 14.99 18.9077 0 
115 1 0.46 70.0 15.5909 18.9735 0 
21 1 0.46 70.0 3.8889 19.4466 0 
82 1 0.46 70.0 4.57011 19.2601 0 
103 1 0.46 70.0 5.16885 19.3503 0 
107 1 0.46 70.0 5.67348 19.3589 0 
149 1 0.46 70.0 6.14774 19.3696 0 
142 1 0.46 70.0 6.60651 19.3792 0 
185 1 0.46 70.0 7.06142 19.3849 0 
23 1 0.46 70.0 7.51265 19.3928 0 
52 1 0.46 70.0 7.96062 19.4019 0 
209 1 0.46 70.0 8.40569 19.4122 0 
87 1 0.46 70.0 8.84836 19.4239 0 
213 1 0.46 70.0 9.28942 19.4381 0 
58 1 0.46 70.0 9.72963 19.4535 0 
215 1 0.46 70.0 10.1738 19.4619 0 
184 1 0.46 70.0 10.62 19.4566 0 
72 1 0.46 70.0 11.0617 19.4322 0 
280 1 0.46 70.0 11.4908 19.3979 0 
202 1 0.46 70.0 11.9316 19.3952 0 
36 1 0.46 70.0 12.378 19.3938 0 
73 1 0.46 70.0 12.8301 19.3911 0 
150 1 0.46 70.0 13.2866 19.3869 0 
126 1 0.46 70.0 13.7463 19.3794 0 
143 1 0.46 70.0 14.2135 19.3548 0 
79 1 0.46 70.0 14.7055 19.3447 0 
266 1 0.46 70.0 15.2287 19.3442 0 
83 1 0.46 70.0 16.014 19.3974 0 
234 1 0.46 70.0 4.36806 19.7321 0 
271 1 0.46 70.0 4.90068 19.7524 0 
133 1 0.46 70.0 5.42666 19.7733 0 
261 1 0.46 70.0 5.913 19.7764 0 
221 1 0.46 70.0 6.37345 19.7792 0 
183 1 0.46 70.0 6.82954 19.7813 0 
238 1 0.46 70.0 7.28158 19.7861 0 
108 1 0.46 70.0 7.7303 19.7917 0 
265 1 0.46 70.0 8.17603 19.7979 0 
69 1 0.46 70.0 8.61919 19.8048 0 
219 1 0.46 70.0 9.06046 19.8126 0 
294 1 0.46 70.0 9.50113 19.8231 0 
135 1 0.46 70.0 9.94686 19.8291 0 
30 1 0.46 70.0 10.3959 19.8297 0 
168 1 0.46 70.0 10.8431 19.8207 0 
237 1 0.46 70.0 11.2844 19.8054 0 
27 1 0.46 70.0 11.7187 19.7921 0 
134 1 0.46 70.0 12.1598 19.7903 0 
267 1 0.46 70.0 12.6072 19.7881 0 
282 1 0.46 70.0 13.0598 19.7852 0 
151 1 0.46 70.0 13.5163 19.7824 0 
276 1 0.46 70.0 13.9761 19.7776 0 
122 1 0.46 70.0 14.4525 19.7731 0 
241 1 0.46 70.0 14.9634 19.7709 0 
4 1 0.46 70.0 15.5533 19.7309 0 
