# LAMMPS data file for rigid bodies

303 atoms

1 atom types

0.0 	 20.0 	 xlo xhi 
0.0 	 20.0 	 ylo yhi 
-1.0 	 1.0 	 zlo zhi 

Atoms

100 1 0.46 70.0 9.41179 13.5991 0 
289 1 0.46 70.0 9.95202 13.3468 0 
113 1 0.46 70.0 10.448 13.6632 0 
186 1 0.46 70.0 11.0785 13.5056 0 
207 1 0.46 70.0 11.67 13.7485 0 
241 1 0.46 70.0 7.65141 14.1222 0 
129 1 0.46 70.0 8.2036 13.7966 0 
43 1 0.46 70.0 8.90321 13.8295 0 
18 1 0.46 70.0 9.41058 14.174 0 
122 1 0.46 70.0 9.93276 13.9507 0 
264 1 0.46 70.0 10.8557 14.0235 0 
216 1 0.46 70.0 11.3464 14.2049 0 
90 1 0.46 70.0 12.2541 13.9632 0 
27 1 0.46 70.0 12.825 14.2144 0 
84 1 0.46 70.0 7.13786 14.4493 0 
29 1 0.46 70.0 8.09395 14.4794 0 
187 1 0.46 70.0 8.55653 14.2352 0 
227 1 0.46 70.0 9.01105 14.4877 0 
231 1 0.46 70.0 9.85907 14.474 0 
78 1 0.46 70.0 10.4002 14.2707 0 
19 1 0.46 70.0 10.9277 14.5441 0 
266 1 0.46 70.0 11.8554 14.3743 0 
134 1 0.46 70.0 12.3631 14.5739 0 
124 1 0.46 70.0 13.4115 14.4881 0 
158 1 0.46 70.0 5.79106 14.9803 0 
261 1 0.46 70.0 6.65215 14.7989 0 
204 1 0.46 70.0 7.18026 15.0518 0 
282 1 0.46 70.0 7.63578 14.7515 0 
276 1 0.46 70.0 8.12381 15.0148 0 
290 1 0.46 70.0 8.57002 14.7673 0 
48 1 0.46 70.0 9.02626 15.0118 0 
107 1 0.46 70.0 9.4471 14.7514 0 
23 1 0.46 70.0 9.87758 15.0196 0 
188 1 0.46 70.0 10.2735 14.741 0 
120 1 0.46 70.0 10.6875 14.9461 0 
52 1 0.46 70.0 11.1368 15.0866 0 
60 1 0.46 70.0 11.4533 14.7271 0 
176 1 0.46 70.0 11.9477 14.9169 0 
238 1 0.46 70.0 12.8747 14.8083 0 
137 1 0.46 70.0 13.378 15.0573 0 
303 1 0.46 70.0 6.28774 15.2476 0 
163 1 0.46 70.0 6.78414 15.416 0 
191 1 0.46 70.0 7.66541 15.2822 0 
220 1 0.46 70.0 8.11494 15.5029 0 
50 1 0.46 70.0 8.59869 15.263 0 
257 1 0.46 70.0 9.06265 15.4932 0 
73 1 0.46 70.0 9.47124 15.2563 0 
279 1 0.46 70.0 9.94469 15.5067 0 
54 1 0.46 70.0 10.3229 15.2466 0 
169 1 0.46 70.0 10.7852 15.4169 0 
135 1 0.46 70.0 11.5874 15.2569 0 
80 1 0.46 70.0 12.4359 15.1147 0 
28 1 0.46 70.0 12.0412 15.4382 0 
133 1 0.46 70.0 12.9288 15.3608 0 
296 1 0.46 70.0 13.9233 15.1859 0 
262 1 0.46 70.0 14.4629 15.4883 0 
130 1 0.46 70.0 5.33603 15.9818 0 
215 1 0.46 70.0 5.79815 15.6069 0 
64 1 0.46 70.0 6.34564 15.7932 0 
251 1 0.46 70.0 6.84192 15.9396 0 
243 1 0.46 70.0 7.25745 15.5984 0 
205 1 0.46 70.0 7.71072 15.7948 0 
57 1 0.46 70.0 8.14122 15.9986 0 
91 1 0.46 70.0 8.52792 15.7166 0 
42 1 0.46 70.0 8.93077 15.9275 0 
258 1 0.46 70.0 9.53674 15.7114 0 
71 1 0.46 70.0 10.0473 15.9538 0 
58 1 0.46 70.0 10.4281 15.7052 0 
72 1 0.46 70.0 10.8715 15.881 0 
118 1 0.46 70.0 11.2283 15.5798 0 
141 1 0.46 70.0 11.6667 15.7532 0 
38 1 0.46 70.0 12.1062 15.9318 0 
121 1 0.46 70.0 12.5036 15.6188 0 
40 1 0.46 70.0 12.9922 15.8797 0 
88 1 0.46 70.0 13.4285 15.592 0 
298 1 0.46 70.0 13.9313 15.7787 0 
185 1 0.46 70.0 4.88429 16.4342 0 
126 1 0.46 70.0 5.92367 16.1568 0 
217 1 0.46 70.0 6.43623 16.3063 0 
85 1 0.46 70.0 6.9151 16.4308 0 
285 1 0.46 70.0 7.31106 16.0974 0 
222 1 0.46 70.0 7.75963 16.2817 0 
299 1 0.46 70.0 8.55799 16.1968 0 
267 1 0.46 70.0 8.976 16.3843 0 
272 1 0.46 70.0 9.34022 16.1125 0 
10 1 0.46 70.0 9.74982 16.2863 0 
171 1 0.46 70.0 10.5076 16.158 0 
125 1 0.46 70.0 10.9414 16.3364 0 
219 1 0.46 70.0 11.3024 16.0527 0 
179 1 0.46 70.0 11.7307 16.2289 0 
275 1 0.46 70.0 12.1611 16.4055 0 
14 1 0.46 70.0 12.5592 16.0855 0 
156 1 0.46 70.0 13.0367 16.383 0 
97 1 0.46 70.0 13.4645 16.1139 0 
49 1 0.46 70.0 13.9533 16.3072 0 
112 1 0.46 70.0 14.4632 16.069 0 
192 1 0.46 70.0 15.0059 16.3727 0 
26 1 0.46 70.0 5.51674 16.5332 0 
146 1 0.46 70.0 6.04309 16.6736 0 
132 1 0.46 70.0 6.53094 16.7966 0 
242 1 0.46 70.0 7.3756 16.5678 0 
239 1 0.46 70.0 7.82108 16.7449 0 
200 1 0.46 70.0 8.19034 16.4712 0 
36 1 0.46 70.0 8.61437 16.6562 0 
167 1 0.46 70.0 9.0357 16.8376 0 
271 1 0.46 70.0 9.39353 16.5654 0 
237 1 0.46 70.0 9.81206 16.7389 0 
209 1 0.46 70.0 10.166 16.4532 0 
292 1 0.46 70.0 10.5856 16.6192 0 
250 1 0.46 70.0 11.0066 16.7911 0 
273 1 0.46 70.0 11.3669 16.5103 0 
35 1 0.46 70.0 11.7905 16.6888 0 
5 1 0.46 70.0 12.2108 16.8712 0 
196 1 0.46 70.0 12.6008 16.5398 0 
181 1 0.46 70.0 13.0932 16.8689 0 
37 1 0.46 70.0 13.5019 16.6207 0 
230 1 0.46 70.0 13.9699 16.8023 0 
246 1 0.46 70.0 14.4649 16.6178 0 
278 1 0.46 70.0 4.68994 17.2926 0 
228 1 0.46 70.0 5.13117 16.9417 0 
213 1 0.46 70.0 5.66273 17.0564 0 
194 1 0.46 70.0 6.15635 17.1672 0 
44 1 0.46 70.0 6.62466 17.2681 0 
74 1 0.46 70.0 6.99663 16.8969 0 
41 1 0.46 70.0 7.44825 17.0205 0 
108 1 0.46 70.0 7.88671 17.1982 0 
183 1 0.46 70.0 8.25072 16.9256 0 
150 1 0.46 70.0 8.67925 17.1083 0 
149 1 0.46 70.0 9.09981 17.2884 0 
263 1 0.46 70.0 9.45505 17.0147 0 
154 1 0.46 70.0 9.87302 17.1899 0 
235 1 0.46 70.0 10.2294 16.9069 0 
115 1 0.46 70.0 10.6471 17.0685 0 
153 1 0.46 70.0 11.0687 17.2436 0 
70 1 0.46 70.0 11.4272 16.9648 0 
94 1 0.46 70.0 11.845 17.1484 0 
223 1 0.46 70.0 12.2525 17.3341 0 
173 1 0.46 70.0 12.6516 16.9868 0 
182 1 0.46 70.0 13.5399 17.1326 0 
287 1 0.46 70.0 13.983 17.2721 0 
274 1 0.46 70.0 14.4575 17.1393 0 
89 1 0.46 70.0 14.9819 16.971 0 
99 1 0.46 70.0 5.27384 17.4579 0 
93 1 0.46 70.0 5.78302 17.5525 0 
46 1 0.46 70.0 6.25661 17.6427 0 
252 1 0.46 70.0 6.70844 17.726 0 
105 1 0.46 70.0 7.077 17.3486 0 
131 1 0.46 70.0 7.51927 17.4693 0 
269 1 0.46 70.0 7.9628 17.6454 0 
277 1 0.46 70.0 8.31997 17.3736 0 
152 1 0.46 70.0 8.74769 17.5577 0 
259 1 0.46 70.0 9.16032 17.7414 0 
253 1 0.46 70.0 9.51523 17.4617 0 
161 1 0.46 70.0 9.93139 17.6415 0 
12 1 0.46 70.0 10.288 17.3585 0 
53 1 0.46 70.0 10.7065 17.5073 0 
136 1 0.46 70.0 11.1276 17.697 0 
201 1 0.46 70.0 11.4879 17.4164 0 
56 1 0.46 70.0 11.9457 17.6708 0 
21 1 0.46 70.0 12.6893 17.4279 0 
65 1 0.46 70.0 13.1332 17.3407 0 
177 1 0.46 70.0 13.2892 17.7695 0 
291 1 0.46 70.0 13.7314 17.6615 0 
268 1 0.46 70.0 14.2535 17.6566 0 
147 1 0.46 70.0 14.7715 17.5523 0 
103 1 0.46 70.0 15.3341 17.4273 0 
193 1 0.46 70.0 4.35058 17.786 0 
301 1 0.46 70.0 4.92359 17.8663 0 
140 1 0.46 70.0 5.44499 17.9587 0 
51 1 0.46 70.0 5.9248 18.0347 0 
233 1 0.46 70.0 6.37849 18.1084 0 
240 1 0.46 70.0 6.82955 18.1713 0 
254 1 0.46 70.0 7.15847 17.7971 0 
102 1 0.46 70.0 7.59876 17.9097 0 
114 1 0.46 70.0 8.0499 18.0872 0 
76 1 0.46 70.0 8.39409 17.8165 0 
123 1 0.46 70.0 8.80628 18.0115 0 
157 1 0.46 70.0 9.20492 18.1987 0 
232 1 0.46 70.0 9.57301 17.9019 0 
265 1 0.46 70.0 9.99935 18.1056 0 
32 1 0.46 70.0 10.3399 17.8095 0 
110 1 0.46 70.0 10.7579 17.9312 0 
210 1 0.46 70.0 11.2661 18.2058 0 
195 1 0.46 70.0 11.5433 17.8541 0 
159 1 0.46 70.0 12.3851 17.7892 0 
293 1 0.46 70.0 12.1498 18.1778 0 
67 1 0.46 70.0 12.8413 17.8377 0 
221 1 0.46 70.0 12.6019 18.2161 0 
139 1 0.46 70.0 13.0838 18.2126 0 
79 1 0.46 70.0 13.5391 18.1543 0 
245 1 0.46 70.0 13.9965 18.0826 0 
164 1 0.46 70.0 14.5144 18.0552 0 
255 1 0.46 70.0 15.0505 17.9943 0 
16 1 0.46 70.0 15.6316 17.936 0 
162 1 0.46 70.0 4.02228 18.3268 0 
66 1 0.46 70.0 4.62374 18.3349 0 
62 1 0.46 70.0 5.15445 18.3836 0 
170 1 0.46 70.0 5.6453 18.4473 0 
69 1 0.46 70.0 6.10836 18.5065 0 
98 1 0.46 70.0 6.56271 18.5599 0 
22 1 0.46 70.0 7.01354 18.6064 0 
13 1 0.46 70.0 7.27578 18.2364 0 
189 1 0.46 70.0 7.70917 18.3348 0 
138 1 0.46 70.0 8.03616 18.6158 0 
247 1 0.46 70.0 8.45192 18.2623 0 
81 1 0.46 70.0 8.88245 18.5186 0 
82 1 0.46 70.0 9.30925 18.6452 0 
17 1 0.46 70.0 9.62346 18.3221 0 
95 1 0.46 70.0 10.1712 18.6325 0 
3 1 0.46 70.0 10.4147 18.2586 0 
96 1 0.46 70.0 10.8505 18.3239 0 
208 1 0.46 70.0 11.4957 18.6368 0 
174 1 0.46 70.0 11.7144 18.2501 0 
143 1 0.46 70.0 11.9478 18.6253 0 
63 1 0.46 70.0 12.3924 18.6119 0 
284 1 0.46 70.0 12.8487 18.6025 0 
248 1 0.46 70.0 13.318 18.598 0 
302 1 0.46 70.0 13.7753 18.5487 0 
190 1 0.46 70.0 14.2502 18.4945 0 
206 1 0.46 70.0 14.7705 18.4685 0 
286 1 0.46 70.0 15.3315 18.4568 0 
24 1 0.46 70.0 15.9471 18.4743 0 
128 1 0.46 70.0 4.32245 18.8276 0 
218 1 0.46 70.0 4.88825 18.8306 0 
283 1 0.46 70.0 5.3947 18.873 0 
203 1 0.46 70.0 5.87293 18.9175 0 
75 1 0.46 70.0 6.33326 18.9583 0 
175 1 0.46 70.0 6.78865 18.9983 0 
106 1 0.46 70.0 7.24151 19.0364 0 
68 1 0.46 70.0 7.45885 18.6686 0 
178 1 0.46 70.0 7.74615 19.0086 0 
86 1 0.46 70.0 8.19618 19.0329 0 
260 1 0.46 70.0 8.47194 18.6801 0 
256 1 0.46 70.0 8.64783 19.0543 0 
15 1 0.46 70.0 9.07573 19.0233 0 
144 1 0.46 70.0 9.51244 19.0556 0 
198 1 0.46 70.0 9.75219 18.7043 0 
270 1 0.46 70.0 9.96385 19.0666 0 
127 1 0.46 70.0 10.6077 18.6746 0 
229 1 0.46 70.0 10.3929 19.0515 0 
148 1 0.46 70.0 10.8374 19.054 0 
20 1 0.46 70.0 11.0629 18.6776 0 
180 1 0.46 70.0 11.2882 19.0443 0 
199 1 0.46 70.0 11.7307 19.0221 0 
109 1 0.46 70.0 12.1791 19.0127 0 
145 1 0.46 70.0 12.6304 19.0017 0 
142 1 0.46 70.0 13.0867 18.9933 0 
11 1 0.46 70.0 13.5505 18.9883 0 
249 1 0.46 70.0 14.0145 18.9456 0 
6 1 0.46 70.0 14.4998 18.9094 0 
151 1 0.46 70.0 15.0235 18.8953 0 
8 1 0.46 70.0 15.6215 18.949 0 
297 1 0.46 70.0 3.94436 19.283 0 
55 1 0.46 70.0 4.61823 19.2842 0 
1 1 0.46 70.0 5.14437 19.3092 0 
211 1 0.46 70.0 5.63356 19.3363 0 
288 1 0.46 70.0 6.10409 19.3598 0 
117 1 0.46 70.0 6.56252 19.3906 0 
155 1 0.46 70.0 7.01992 19.4134 0 
234 1 0.46 70.0 7.5039 19.3993 0 
116 1 0.46 70.0 7.95606 19.4103 0 
212 1 0.46 70.0 8.40757 19.425 0 
33 1 0.46 70.0 8.85915 19.4279 0 
111 1 0.46 70.0 9.29329 19.4275 0 
166 1 0.46 70.0 9.73575 19.4403 0 
92 1 0.46 70.0 10.1808 19.4442 0 
25 1 0.46 70.0 10.62 19.4352 0 
77 1 0.46 70.0 11.0664 19.4296 0 
47 1 0.46 70.0 11.5147 19.4204 0 
87 1 0.46 70.0 11.9609 19.4083 0 
168 1 0.46 70.0 12.4111 19.4003 0 
45 1 0.46 70.0 12.864 19.3926 0 
224 1 0.46 70.0 13.3208 19.3864 0 
184 1 0.46 70.0 13.7846 19.3806 0 
160 1 0.46 70.0 14.2539 19.3514 0 
59 1 0.46 70.0 14.7429 19.3362 0 
202 1 0.46 70.0 15.2672 19.3344 0 
225 1 0.46 70.0 16.0345 19.3788 0 
101 1 0.46 70.0 4.31732 19.7193 0 
9 1 0.46 70.0 4.88218 19.751 0 
31 1 0.46 70.0 5.39124 19.7694 0 
172 1 0.46 70.0 5.87045 19.774 0 
39 1 0.46 70.0 6.33007 19.782 0 
4 1 0.46 70.0 6.78917 19.7935 0 
197 1 0.46 70.0 7.26857 19.7901 0 
244 1 0.46 70.0 7.72335 19.7952 0 
226 1 0.46 70.0 8.17551 19.803 0 
300 1 0.46 70.0 8.62721 19.8081 0 
34 1 0.46 70.0 9.07294 19.8121 0 
30 1 0.46 70.0 9.51256 19.8158 0 
104 1 0.46 70.0 9.95738 19.8202 0 
295 1 0.46 70.0 10.4036 19.8199 0 
61 1 0.46 70.0 10.8468 19.8125 0 
281 1 0.46 70.0 11.2933 19.8079 0 
165 1 0.46 70.0 11.7413 19.802 0 
236 1 0.46 70.0 12.1898 19.7954 0 
294 1 0.46 70.0 12.641 19.7902 0 
119 1 0.46 70.0 13.0949 19.7855 0 
280 1 0.46 70.0 13.5521 19.7817 0 
2 1 0.46 70.0 14.0152 19.7777 0 
7 1 0.46 70.0 14.4926 19.7724 0 
214 1 0.46 70.0 15.0021 19.769 0 
83 1 0.46 70.0 15.5864 19.7296 0 
