# LAMMPS data file for rigid bodies

303 atoms

1 atom types

0.0 	 20.0 	 xlo xhi 
0.0 	 20.0 	 ylo yhi 
-1.0 	 1.0 	 zlo zhi 

Atoms

168 1 0.46 70.0 9.38012 13.2567 0 
221 1 0.46 70.0 10.0629 13.2914 0 
201 1 0.46 70.0 8.53239 13.537 0 
181 1 0.46 70.0 9.07745 13.745 0 
124 1 0.46 70.0 10.6557 13.6166 0 
31 1 0.46 70.0 11.2472 13.5204 0 
70 1 0.46 70.0 7.61278 13.9066 0 
159 1 0.46 70.0 8.20172 14.0189 0 
95 1 0.46 70.0 8.74891 14.1564 0 
207 1 0.46 70.0 9.62442 13.8125 0 
40 1 0.46 70.0 10.1514 13.8472 0 
19 1 0.46 70.0 10.9705 14.1025 0 
106 1 0.46 70.0 11.5146 14.0273 0 
202 1 0.46 70.0 12.0639 13.842 0 
235 1 0.46 70.0 7.21272 14.3794 0 
222 1 0.46 70.0 7.83963 14.4546 0 
108 1 0.46 70.0 8.38423 14.5517 0 
129 1 0.46 70.0 8.90556 14.6436 0 
54 1 0.46 70.0 9.31978 14.2575 0 
2 1 0.46 70.0 9.87791 14.3145 0 
257 1 0.46 70.0 10.4634 14.2409 0 
297 1 0.46 70.0 10.8056 14.6317 0 
218 1 0.46 70.0 11.2985 14.5467 0 
278 1 0.46 70.0 11.8172 14.4713 0 
149 1 0.46 70.0 12.3433 14.3543 0 
253 1 0.46 70.0 12.9242 14.2693 0 
84 1 0.46 70.0 6.84437 14.8219 0 
100 1 0.46 70.0 7.51193 14.8675 0 
3 1 0.46 70.0 8.06362 14.9527 0 
204 1 0.46 70.0 8.58452 15.0315 0 
273 1 0.46 70.0 9.38638 14.7411 0 
65 1 0.46 70.0 9.84832 14.7943 0 
57 1 0.46 70.0 10.3134 14.7122 0 
137 1 0.46 70.0 10.6169 15.1032 0 
38 1 0.46 70.0 11.1047 15.0363 0 
188 1 0.46 70.0 11.5985 14.9692 0 
51 1 0.46 70.0 12.112 14.8988 0 
14 1 0.46 70.0 12.6481 14.8133 0 
264 1 0.46 70.0 13.2658 14.7714 0 
49 1 0.46 70.0 6.13985 15.1128 0 
64 1 0.46 70.0 6.6531 15.3361 0 
12 1 0.46 70.0 7.22428 15.2784 0 
33 1 0.46 70.0 7.76321 15.3475 0 
42 1 0.46 70.0 8.27756 15.4154 0 
68 1 0.46 70.0 8.77989 15.4793 0 
34 1 0.46 70.0 9.08939 15.1203 0 
178 1 0.46 70.0 9.29491 15.5431 0 
211 1 0.46 70.0 9.59815 15.1992 0 
268 1 0.46 70.0 10.1243 15.1808 0 
22 1 0.46 70.0 10.4157 15.5366 0 
39 1 0.46 70.0 10.9055 15.4848 0 
75 1 0.46 70.0 11.3898 15.4349 0 
111 1 0.46 70.0 11.879 15.3793 0 
26 1 0.46 70.0 12.3823 15.3199 0 
13 1 0.46 70.0 12.9056 15.2595 0 
244 1 0.46 70.0 13.4682 15.2925 0 
195 1 0.46 70.0 14.0112 15.146 0 
194 1 0.46 70.0 5.79142 15.6417 0 
260 1 0.46 70.0 6.33976 15.7748 0 
61 1 0.46 70.0 6.99247 15.7182 0 
148 1 0.46 70.0 7.49665 15.7528 0 
247 1 0.46 70.0 7.98803 15.8044 0 
17 1 0.46 70.0 8.46911 15.8548 0 
254 1 0.46 70.0 8.93743 15.9097 0 
41 1 0.46 70.0 9.38842 15.9844 0 
141 1 0.46 70.0 9.87439 15.5668 0 
67 1 0.46 70.0 10.281 15.9701 0 
275 1 0.46 70.0 10.7359 15.9114 0 
50 1 0.46 70.0 11.1983 15.8713 0 
157 1 0.46 70.0 11.6682 15.831 0 
151 1 0.46 70.0 12.1456 15.7862 0 
69 1 0.46 70.0 12.6356 15.7392 0 
107 1 0.46 70.0 13.1452 15.7046 0 
296 1 0.46 70.0 13.7657 15.761 0 
162 1 0.46 70.0 14.3299 15.6814 0 
125 1 0.46 70.0 5.47433 16.1377 0 
302 1 0.46 70.0 6.04007 16.2309 0 
200 1 0.46 70.0 6.72297 16.1098 0 
119 1 0.46 70.0 7.23565 16.1641 0 
37 1 0.46 70.0 7.71726 16.2017 0 
298 1 0.46 70.0 8.18736 16.2406 0 
284 1 0.46 70.0 8.64919 16.2808 0 
230 1 0.46 70.0 9.10613 16.3374 0 
45 1 0.46 70.0 9.59431 16.4011 0 
86 1 0.46 70.0 9.83324 16.0139 0 
271 1 0.46 70.0 10.0829 16.3909 0 
11 1 0.46 70.0 10.5574 16.333 0 
60 1 0.46 70.0 11.0143 16.2924 0 
160 1 0.46 70.0 11.4725 16.2592 0 
98 1 0.46 70.0 11.9338 16.2283 0 
166 1 0.46 70.0 12.4027 16.1919 0 
163 1 0.46 70.0 12.8854 16.155 0 
7 1 0.46 70.0 13.3964 16.1147 0 
224 1 0.46 70.0 14.0614 16.2391 0 
183 1 0.46 70.0 14.6361 16.1769 0 
150 1 0.46 70.0 5.16087 16.6179 0 
240 1 0.46 70.0 5.74157 16.687 0 
232 1 0.46 70.0 6.21036 16.8824 0 
144 1 0.46 70.0 6.46855 16.4992 0 
23 1 0.46 70.0 6.97205 16.559 0 
300 1 0.46 70.0 7.45269 16.6006 0 
179 1 0.46 70.0 7.91647 16.6297 0 
63 1 0.46 70.0 8.37486 16.6601 0 
58 1 0.46 70.0 8.83171 16.6997 0 
293 1 0.46 70.0 9.30259 16.7444 0 
24 1 0.46 70.0 9.84701 16.7794 0 
44 1 0.46 70.0 10.3645 16.7416 0 
286 1 0.46 70.0 10.8218 16.7059 0 
236 1 0.46 70.0 11.2782 16.6743 0 
186 1 0.46 70.0 11.7354 16.6474 0 
104 1 0.46 70.0 12.1938 16.6247 0 
217 1 0.46 70.0 12.6567 16.5946 0 
158 1 0.46 70.0 13.1356 16.5599 0 
175 1 0.46 70.0 13.6387 16.5135 0 
170 1 0.46 70.0 14.3629 16.711 0 
249 1 0.46 70.0 14.9467 16.6547 0 
250 1 0.46 70.0 4.85362 17.1015 0 
173 1 0.46 70.0 5.44987 17.1407 0 
248 1 0.46 70.0 5.95091 17.2696 0 
138 1 0.46 70.0 6.71238 16.9504 0 
171 1 0.46 70.0 7.19173 16.9939 0 
81 1 0.46 70.0 7.65319 17.0219 0 
116 1 0.46 70.0 8.11125 17.0447 0 
228 1 0.46 70.0 8.56807 17.073 0 
131 1 0.46 70.0 9.02904 17.1038 0 
97 1 0.46 70.0 9.54843 17.1138 0 
88 1 0.46 70.0 10.1377 17.1225 0 
292 1 0.46 70.0 10.6245 17.1113 0 
213 1 0.46 70.0 11.0806 17.0833 0 
91 1 0.46 70.0 11.5355 17.0582 0 
47 1 0.46 70.0 11.9915 17.0373 0 
110 1 0.46 70.0 12.4493 17.0191 0 
165 1 0.46 70.0 12.9096 16.9932 0 
145 1 0.46 70.0 13.3885 16.9581 0 
48 1 0.46 70.0 13.8928 16.8995 0 
112 1 0.46 70.0 14.1526 17.288 0 
155 1 0.46 70.0 14.6594 17.175 0 
169 1 0.46 70.0 15.2532 17.1365 0 
239 1 0.46 70.0 4.54582 17.6004 0 
301 1 0.46 70.0 5.16798 17.5955 0 
287 1 0.46 70.0 5.6962 17.6675 0 
290 1 0.46 70.0 6.20301 17.7285 0 
220 1 0.46 70.0 6.45374 17.3385 0 
189 1 0.46 70.0 6.93353 17.3839 0 
103 1 0.46 70.0 6.6859 17.7733 0 
272 1 0.46 70.0 7.39262 17.4154 0 
73 1 0.46 70.0 7.84893 17.4354 0 
133 1 0.46 70.0 8.30105 17.4573 0 
132 1 0.46 70.0 8.74773 17.4835 0 
18 1 0.46 70.0 9.18632 17.5118 0 
122 1 0.46 70.0 9.61055 17.5389 0 
118 1 0.46 70.0 10.0282 17.5382 0 
78 1 0.46 70.0 10.4556 17.5161 0 
209 1 0.46 70.0 10.8931 17.4901 0 
72 1 0.46 70.0 11.3378 17.4659 0 
117 1 0.46 70.0 11.7876 17.4455 0 
212 1 0.46 70.0 12.2416 17.4282 0 
177 1 0.46 70.0 12.6989 17.4125 0 
94 1 0.46 70.0 13.1607 17.3874 0 
140 1 0.46 70.0 13.644 17.349 0 
85 1 0.46 70.0 13.407 17.7779 0 
80 1 0.46 70.0 13.8956 17.7395 0 
83 1 0.46 70.0 14.4097 17.6883 0 
46 1 0.46 70.0 14.9479 17.6399 0 
210 1 0.46 70.0 15.5586 17.6347 0 
295 1 0.46 70.0 4.23812 18.143 0 
198 1 0.46 70.0 4.89347 18.0559 0 
93 1 0.46 70.0 5.44616 18.0759 0 
123 1 0.46 70.0 5.95784 18.1228 0 
161 1 0.46 70.0 6.44358 18.164 0 
258 1 0.46 70.0 6.90734 18.1955 0 
96 1 0.46 70.0 7.14745 17.8049 0 
28 1 0.46 70.0 7.36447 18.2125 0 
128 1 0.46 70.0 7.60384 17.8233 0 
233 1 0.46 70.0 8.05603 17.8427 0 
299 1 0.46 70.0 8.50317 17.8652 0 
197 1 0.46 70.0 8.94528 17.8909 0 
282 1 0.46 70.0 9.38251 17.9176 0 
203 1 0.46 70.0 9.82095 17.9303 0 
238 1 0.46 70.0 10.2585 17.9192 0 
280 1 0.46 70.0 10.6954 17.896 0 
174 1 0.46 70.0 11.136 17.8723 0 
66 1 0.46 70.0 11.5809 17.8513 0 
164 1 0.46 70.0 12.0303 17.8335 0 
5 1 0.46 70.0 12.2685 18.2217 0 
152 1 0.46 70.0 12.4838 17.818 0 
153 1 0.46 70.0 12.7229 18.2081 0 
43 1 0.46 70.0 12.9411 17.8035 0 
139 1 0.46 70.0 13.1808 18.1946 0 
291 1 0.46 70.0 13.6496 18.1686 0 
52 1 0.46 70.0 14.1418 18.1348 0 
120 1 0.46 70.0 14.6619 18.1 0 
20 1 0.46 70.0 15.2367 18.1132 0 
303 1 0.46 70.0 15.8749 18.1709 0 
36 1 0.46 70.0 4.64229 18.5377 0 
1 1 0.46 70.0 5.20695 18.4965 0 
35 1 0.46 70.0 5.71919 18.5253 0 
185 1 0.46 70.0 6.20593 18.5577 0 
105 1 0.46 70.0 6.67118 18.5877 0 
56 1 0.46 70.0 7.12904 18.6028 0 
115 1 0.46 70.0 7.81782 18.2288 0 
266 1 0.46 70.0 7.58357 18.6157 0 
135 1 0.46 70.0 8.26725 18.2479 0 
205 1 0.46 70.0 8.03492 18.6311 0 
27 1 0.46 70.0 8.48358 18.6488 0 
21 1 0.46 70.0 8.71308 18.2697 0 
276 1 0.46 70.0 9.15639 18.2926 0 
9 1 0.46 70.0 9.59973 18.3089 0 
127 1 0.46 70.0 10.0444 18.3104 0 
25 1 0.46 70.0 10.4869 18.2964 0 
259 1 0.46 70.0 10.9278 18.2754 0 
225 1 0.46 70.0 11.3712 18.255 0 
269 1 0.46 70.0 11.1572 18.6546 0 
237 1 0.46 70.0 11.818 18.2371 0 
245 1 0.46 70.0 11.6032 18.6378 0 
126 1 0.46 70.0 12.0519 18.6231 0 
288 1 0.46 70.0 12.5039 18.6103 0 
270 1 0.46 70.0 12.9591 18.5993 0 
190 1 0.46 70.0 13.4177 18.587 0 
241 1 0.46 70.0 13.8882 18.5619 0 
191 1 0.46 70.0 14.3829 18.5381 0 
256 1 0.46 70.0 14.9065 18.5202 0 
216 1 0.46 70.0 15.5238 18.6139 0 
10 1 0.46 70.0 4.18973 18.8671 0 
79 1 0.46 70.0 4.97221 18.9286 0 
252 1 0.46 70.0 5.48311 18.9389 0 
279 1 0.46 70.0 5.97054 18.9574 0 
285 1 0.46 70.0 6.43743 18.9817 0 
156 1 0.46 70.0 6.89596 18.9943 0 
283 1 0.46 70.0 7.35158 19.004 0 
101 1 0.46 70.0 7.80439 19.0156 0 
214 1 0.46 70.0 8.25495 19.0291 0 
226 1 0.46 70.0 8.70399 19.0436 0 
219 1 0.46 70.0 8.93045 18.6676 0 
199 1 0.46 70.0 9.15242 19.0574 0 
172 1 0.46 70.0 9.37708 18.6837 0 
142 1 0.46 70.0 9.59988 19.0681 0 
89 1 0.46 70.0 9.82327 18.6918 0 
29 1 0.46 70.0 10.0478 19.0704 0 
255 1 0.46 70.0 10.2693 18.6875 0 
16 1 0.46 70.0 10.4947 19.0628 0 
206 1 0.46 70.0 10.7129 18.6725 0 
134 1 0.46 70.0 10.9397 19.0485 0 
274 1 0.46 70.0 11.3859 19.0342 0 
121 1 0.46 70.0 11.8338 19.0213 0 
187 1 0.46 70.0 12.284 19.01 0 
4 1 0.46 70.0 12.737 19.0002 0 
229 1 0.46 70.0 13.1931 18.9918 0 
242 1 0.46 70.0 13.6523 18.9811 0 
261 1 0.46 70.0 14.1248 18.9617 0 
76 1 0.46 70.0 14.62 18.9531 0 
208 1 0.46 70.0 15.1372 18.9497 0 
74 1 0.46 70.0 15.9738 19.0103 0 
294 1 0.46 70.0 3.93823 19.4313 0 
267 1 0.46 70.0 4.61756 19.2678 0 
182 1 0.46 70.0 5.21846 19.3554 0 
180 1 0.46 70.0 5.7267 19.3638 0 
231 1 0.46 70.0 6.20399 19.3772 0 
55 1 0.46 70.0 6.66385 19.3873 0 
32 1 0.46 70.0 7.1207 19.394 0 
251 1 0.46 70.0 7.57478 19.4021 0 
263 1 0.46 70.0 8.02672 19.4114 0 
53 1 0.46 70.0 8.47721 19.4217 0 
15 1 0.46 70.0 8.92701 19.4318 0 
114 1 0.46 70.0 9.3764 19.4412 0 
59 1 0.46 70.0 9.82443 19.4476 0 
82 1 0.46 70.0 10.2732 19.446 0 
167 1 0.46 70.0 10.7196 19.4365 0 
8 1 0.46 70.0 11.1666 19.4256 0 
113 1 0.46 70.0 11.6142 19.4156 0 
109 1 0.46 70.0 12.0633 19.4066 0 
176 1 0.46 70.0 12.5147 19.3986 0 
154 1 0.46 70.0 12.9687 19.3916 0 
223 1 0.46 70.0 13.4256 19.3858 0 
265 1 0.46 70.0 13.8869 19.3766 0 
6 1 0.46 70.0 14.3688 19.369 0 
243 1 0.46 70.0 14.8861 19.3735 0 
215 1 0.46 70.0 15.4797 19.3119 0 
102 1 0.46 70.0 4.40927 19.7343 0 
87 1 0.46 70.0 4.94758 19.7543 0 
143 1 0.46 70.0 5.47937 19.7738 0 
146 1 0.46 70.0 5.96901 19.7773 0 
184 1 0.46 70.0 6.43288 19.7821 0 
92 1 0.46 70.0 6.89059 19.7862 0 
71 1 0.46 70.0 7.3457 19.791 0 
262 1 0.46 70.0 7.79866 19.7965 0 
289 1 0.46 70.0 8.25009 19.8025 0 
193 1 0.46 70.0 8.70057 19.8086 0 
99 1 0.46 70.0 9.1503 19.8144 0 
90 1 0.46 70.0 9.599 19.8209 0 
147 1 0.46 70.0 10.05 19.8221 0 
30 1 0.46 70.0 10.5001 19.8194 0 
196 1 0.46 70.0 10.9467 19.8117 0 
277 1 0.46 70.0 11.3939 19.8054 0 
62 1 0.46 70.0 11.8422 19.7996 0 
136 1 0.46 70.0 12.2922 19.7942 0 
77 1 0.46 70.0 12.7445 19.7893 0 
192 1 0.46 70.0 13.1995 19.785 0 
130 1 0.46 70.0 13.6576 19.7812 0 
234 1 0.46 70.0 14.1261 19.7773 0 
246 1 0.46 70.0 14.6261 19.7749 0 
227 1 0.46 70.0 15.1975 19.7597 0 
281 1 0.46 70.0 15.8607 19.6854 0 
