# LAMMPS data file for rigid bodies

303 atoms

1 atom types

0.0 	 20.0 	 xlo xhi 
0.0 	 20.0 	 ylo yhi 
-1.0 	 1.0 	 zlo zhi 

Atoms

254 1 0.46 70.0 8.7731 13.5005 0 
90 1 0.46 70.0 9.3897 13.5679 0 
264 1 0.46 70.0 10.0045 13.6023 0 
129 1 0.46 70.0 10.62 13.553 0 
17 1 0.46 70.0 11.2416 13.5 0 
266 1 0.46 70.0 7.82818 13.8947 0 
233 1 0.46 70.0 8.41448 13.9812 0 
181 1 0.46 70.0 8.97343 14.0569 0 
81 1 0.46 70.0 9.49537 14.1203 0 
120 1 0.46 70.0 10.0031 14.1548 0 
134 1 0.46 70.0 10.5128 14.1051 0 
190 1 0.46 70.0 11.037 14.0517 0 
147 1 0.46 70.0 11.5996 13.983 0 
27 1 0.46 70.0 12.194 13.9248 0 
70 1 0.46 70.0 6.99598 14.3536 0 
301 1 0.46 70.0 7.57646 14.4192 0 
283 1 0.46 70.0 8.13182 14.4568 0 
289 1 0.46 70.0 8.67051 14.5056 0 
272 1 0.46 70.0 9.2027 14.5612 0 
158 1 0.46 70.0 9.73562 14.6083 0 
241 1 0.46 70.0 10.281 14.5974 0 
71 1 0.46 70.0 10.8032 14.5543 0 
131 1 0.46 70.0 11.3283 14.5078 0 
137 1 0.46 70.0 11.8648 14.4671 0 
265 1 0.46 70.0 12.4294 14.4552 0 
227 1 0.46 70.0 13.016 14.4171 0 
193 1 0.46 70.0 6.15627 14.9364 0 
42 1 0.46 70.0 6.75229 14.8946 0 
76 1 0.46 70.0 7.30765 14.9057 0 
196 1 0.46 70.0 7.84294 14.9149 0 
173 1 0.46 70.0 8.34675 14.9462 0 
261 1 0.46 70.0 8.82599 14.9876 0 
303 1 0.46 70.0 9.28354 15.0346 0 
209 1 0.46 70.0 9.73845 15.0751 0 
230 1 0.46 70.0 10.1947 15.0606 0 
10 1 0.46 70.0 10.652 15.0236 0 
157 1 0.46 70.0 11.122 14.9862 0 
139 1 0.46 70.0 11.6113 14.952 0 
216 1 0.46 70.0 12.1252 14.9261 0 
113 1 0.46 70.0 12.6835 14.9463 0 
171 1 0.46 70.0 13.2613 14.9573 0 
273 1 0.46 70.0 13.8773 15.1089 0 
84 1 0.46 70.0 5.87628 15.4872 0 
1 1 0.46 70.0 6.51542 15.4078 0 
69 1 0.46 70.0 7.06595 15.3815 0 
267 1 0.46 70.0 7.6011 15.3613 0 
205 1 0.46 70.0 8.10035 15.384 0 
140 1 0.46 70.0 8.57708 15.4177 0 
62 1 0.46 70.0 9.04029 15.4553 0 
204 1 0.46 70.0 9.49908 15.4856 0 
240 1 0.46 70.0 9.96553 15.4929 0 
237 1 0.46 70.0 10.4287 15.477 0 
239 1 0.46 70.0 10.8886 15.4484 0 
6 1 0.46 70.0 11.357 15.4171 0 
195 1 0.46 70.0 11.8398 15.3883 0 
102 1 0.46 70.0 12.3456 15.3686 0 
100 1 0.46 70.0 12.8978 15.4282 0 
153 1 0.46 70.0 13.4437 15.484 0 
162 1 0.46 70.0 6.28445 15.8829 0 
36 1 0.46 70.0 6.8381 15.848 0 
231 1 0.46 70.0 7.38118 15.7927 0 
85 1 0.46 70.0 7.87745 15.808 0 
260 1 0.46 70.0 8.35195 15.8359 0 
5 1 0.46 70.0 8.81403 15.8639 0 
215 1 0.46 70.0 9.27247 15.8857 0 
80 1 0.46 70.0 9.73033 15.8946 0 
95 1 0.46 70.0 10.1884 15.8947 0 
156 1 0.46 70.0 10.646 15.8819 0 
302 1 0.46 70.0 11.1046 15.8606 0 
43 1 0.46 70.0 11.5689 15.8362 0 
133 1 0.46 70.0 12.0459 15.8122 0 
292 1 0.46 70.0 12.5425 15.7975 0 
59 1 0.46 70.0 13.1032 15.9067 0 
262 1 0.46 70.0 13.6499 15.9591 0 
18 1 0.46 70.0 14.1388 15.6705 0 
66 1 0.46 70.0 5.0154 16.2737 0 
186 1 0.46 70.0 5.62256 16.0119 0 
176 1 0.46 70.0 6.07121 16.3444 0 
247 1 0.46 70.0 6.61347 16.303 0 
223 1 0.46 70.0 7.17662 16.2104 0 
111 1 0.46 70.0 7.66628 16.222 0 
235 1 0.46 70.0 8.13461 16.2435 0 
185 1 0.46 70.0 8.59285 16.2659 0 
188 1 0.46 70.0 9.04867 16.2845 0 
68 1 0.46 70.0 9.50285 16.2921 0 
82 1 0.46 70.0 9.95663 16.2937 0 
63 1 0.46 70.0 10.4102 16.2938 0 
64 1 0.46 70.0 10.864 16.2833 0 
198 1 0.46 70.0 11.3195 16.2655 0 
298 1 0.46 70.0 11.7775 16.2457 0 
52 1 0.46 70.0 12.2433 16.2277 0 
187 1 0.46 70.0 12.7275 16.2172 0 
127 1 0.46 70.0 13.2861 16.3824 0 
200 1 0.46 70.0 14.2272 16.247 0 
124 1 0.46 70.0 14.752 16.06 0 
67 1 0.46 70.0 4.66699 16.8628 0 
32 1 0.46 70.0 5.48439 16.5767 0 
221 1 0.46 70.0 5.92283 16.8191 0 
51 1 0.46 70.0 6.4106 16.7665 0 
101 1 0.46 70.0 6.97324 16.6206 0 
15 1 0.46 70.0 7.45677 16.6307 0 
145 1 0.46 70.0 7.91822 16.6475 0 
60 1 0.46 70.0 8.37482 16.6663 0 
142 1 0.46 70.0 8.82856 16.6818 0 
182 1 0.46 70.0 9.28017 16.6884 0 
238 1 0.46 70.0 9.73004 16.6909 0 
169 1 0.46 70.0 10.1797 16.6917 0 
270 1 0.46 70.0 10.6288 16.6908 0 
284 1 0.46 70.0 11.0788 16.683 0 
13 1 0.46 70.0 11.5307 16.6692 0 
148 1 0.46 70.0 11.9852 16.6534 0 
212 1 0.46 70.0 12.4427 16.6406 0 
180 1 0.46 70.0 12.9043 16.6373 0 
78 1 0.46 70.0 13.7679 16.4456 0 
229 1 0.46 70.0 13.5375 16.8769 0 
202 1 0.46 70.0 14.0452 16.8578 0 
296 1 0.46 70.0 14.5375 16.7181 0 
192 1 0.46 70.0 15.0921 16.6218 0 
210 1 0.46 70.0 5.18904 17.0481 0 
208 1 0.46 70.0 5.65788 17.2345 0 
194 1 0.46 70.0 6.1576 17.2505 0 
46 1 0.46 70.0 6.78317 17.0343 0 
251 1 0.46 70.0 7.24721 17.0377 0 
109 1 0.46 70.0 7.70478 17.0504 0 
73 1 0.46 70.0 8.159 17.0648 0 
93 1 0.46 70.0 8.61036 17.0769 0 
112 1 0.46 70.0 9.05952 17.0828 0 
22 1 0.46 70.0 9.50697 17.0867 0 
263 1 0.46 70.0 9.95412 17.0886 0 
79 1 0.46 70.0 10.4011 17.0883 0 
282 1 0.46 70.0 10.8479 17.0853 0 
287 1 0.46 70.0 11.2956 17.0788 0 
178 1 0.46 70.0 11.7448 17.0688 0 
246 1 0.46 70.0 12.1969 17.0569 0 
74 1 0.46 70.0 12.6521 17.0479 0 
183 1 0.46 70.0 13.111 17.0398 0 
37 1 0.46 70.0 13.8037 17.3113 0 
103 1 0.46 70.0 14.3157 17.2833 0 
299 1 0.46 70.0 14.8302 17.2023 0 
110 1 0.46 70.0 15.4089 17.1663 0 
122 1 0.46 70.0 4.29712 17.4306 0 
174 1 0.46 70.0 4.86659 17.516 0 
138 1 0.46 70.0 5.37209 17.6464 0 
146 1 0.46 70.0 5.88329 17.691 0 
189 1 0.46 70.0 6.5741 17.4358 0 
94 1 0.46 70.0 7.03281 17.4418 0 
203 1 0.46 70.0 7.48824 17.4498 0 
300 1 0.46 70.0 7.94051 17.4597 0 
172 1 0.46 70.0 8.39046 17.4688 0 
268 1 0.46 70.0 8.83907 17.4752 0 
121 1 0.46 70.0 9.28609 17.4802 0 
23 1 0.46 70.0 9.73137 17.4836 0 
256 1 0.46 70.0 10.1767 17.4843 0 
126 1 0.46 70.0 10.622 17.482 0 
58 1 0.46 70.0 11.0692 17.4773 0 
144 1 0.46 70.0 11.5182 17.4699 0 
41 1 0.46 70.0 11.9691 17.4611 0 
197 1 0.46 70.0 12.4228 17.4514 0 
89 1 0.46 70.0 12.8807 17.4437 0 
29 1 0.46 70.0 13.3558 17.4215 0 
53 1 0.46 70.0 14.0606 17.7306 0 
96 1 0.46 70.0 14.5907 17.7236 0 
290 1 0.46 70.0 15.1233 17.6929 0 
114 1 0.46 70.0 15.7414 17.7204 0 
228 1 0.46 70.0 4.5058 17.9991 0 
130 1 0.46 70.0 5.06458 18.066 0 
19 1 0.46 70.0 5.60539 18.1072 0 
165 1 0.46 70.0 6.07886 18.1993 0 
143 1 0.46 70.0 6.32571 17.8155 0 
199 1 0.46 70.0 6.8009 17.8359 0 
38 1 0.46 70.0 7.2596 17.8417 0 
219 1 0.46 70.0 7.71459 17.85 0 
88 1 0.46 70.0 8.16695 17.8584 0 
21 1 0.46 70.0 8.61702 17.8655 0 
14 1 0.46 70.0 9.06455 17.8712 0 
44 1 0.46 70.0 9.50953 17.8759 0 
86 1 0.46 70.0 9.95412 17.8781 0 
271 1 0.46 70.0 10.3988 17.877 0 
155 1 0.46 70.0 10.8441 17.8727 0 
104 1 0.46 70.0 11.292 17.8667 0 
184 1 0.46 70.0 11.7424 17.8592 0 
135 1 0.46 70.0 12.1954 17.8506 0 
201 1 0.46 70.0 12.6515 17.8419 0 
274 1 0.46 70.0 13.1132 17.8343 0 
160 1 0.46 70.0 13.591 17.8111 0 
248 1 0.46 70.0 13.8279 18.2016 0 
3 1 0.46 70.0 14.3128 18.1424 0 
286 1 0.46 70.0 14.8778 18.1902 0 
57 1 0.46 70.0 15.4191 18.1909 0 
207 1 0.46 70.0 4.12645 18.473 0 
20 1 0.46 70.0 4.74969 18.5107 0 
275 1 0.46 70.0 5.32831 18.5134 0 
218 1 0.46 70.0 5.82887 18.5834 0 
98 1 0.46 70.0 6.56394 18.2256 0 
250 1 0.46 70.0 6.3237 18.6135 0 
213 1 0.46 70.0 7.03041 18.2321 0 
278 1 0.46 70.0 6.79892 18.6203 0 
48 1 0.46 70.0 7.48756 18.239 0 
293 1 0.46 70.0 7.25888 18.627 0 
276 1 0.46 70.0 7.94176 18.2464 0 
132 1 0.46 70.0 7.71509 18.6335 0 
39 1 0.46 70.0 8.16834 18.6398 0 
149 1 0.46 70.0 8.39341 18.2534 0 
150 1 0.46 70.0 8.84239 18.2596 0 
40 1 0.46 70.0 8.61877 18.6458 0 
54 1 0.46 70.0 9.28862 18.2651 0 
163 1 0.46 70.0 9.06626 18.6515 0 
288 1 0.46 70.0 9.73237 18.2692 0 
291 1 0.46 70.0 9.51056 18.6571 0 
232 1 0.46 70.0 10.1762 18.2697 0 
11 1 0.46 70.0 9.95436 18.6596 0 
106 1 0.46 70.0 10.6201 18.2661 0 
168 1 0.46 70.0 10.3983 18.6578 0 
191 1 0.46 70.0 11.0666 18.2606 0 
123 1 0.46 70.0 10.8426 18.6523 0 
108 1 0.46 70.0 11.5158 18.2541 0 
119 1 0.46 70.0 11.2901 18.6464 0 
118 1 0.46 70.0 11.9676 18.2467 0 
244 1 0.46 70.0 11.7405 18.64 0 
25 1 0.46 70.0 12.4222 18.2388 0 
61 1 0.46 70.0 12.1937 18.6333 0 
45 1 0.46 70.0 12.88 18.2306 0 
154 1 0.46 70.0 12.6498 18.6261 0 
77 1 0.46 70.0 13.1089 18.619 0 
16 1 0.46 70.0 13.346 18.2247 0 
2 1 0.46 70.0 13.5788 18.6157 0 
28 1 0.46 70.0 14.0611 18.5959 0 
164 1 0.46 70.0 14.552 18.5512 0 
242 1 0.46 70.0 15.8504 18.5937 0 
115 1 0.46 70.0 4.41624 18.974 0 
9 1 0.46 70.0 5.05881 18.9234 0 
56 1 0.46 70.0 5.57821 18.9689 0 
26 1 0.46 70.0 6.0799 19.0 0 
211 1 0.46 70.0 6.56369 19.0077 0 
128 1 0.46 70.0 7.02931 19.0141 0 
217 1 0.46 70.0 7.48713 19.02 0 
170 1 0.46 70.0 7.94197 19.0255 0 
222 1 0.46 70.0 8.39393 19.0307 0 
294 1 0.46 70.0 8.84301 19.0358 0 
35 1 0.46 70.0 9.28926 19.0414 0 
234 1 0.46 70.0 9.7326 19.0464 0 
159 1 0.46 70.0 10.1763 19.0466 0 
72 1 0.46 70.0 10.62 19.0423 0 
252 1 0.46 70.0 11.0658 19.0365 0 
151 1 0.46 70.0 11.5146 19.031 0 
281 1 0.46 70.0 11.9663 19.0254 0 
206 1 0.46 70.0 12.4207 19.0195 0 
295 1 0.46 70.0 12.878 19.0134 0 
253 1 0.46 70.0 13.3391 19.008 0 
255 1 0.46 70.0 13.8137 19.0071 0 
277 1 0.46 70.0 14.3006 18.9894 0 
24 1 0.46 70.0 14.8022 18.9428 0 
167 1 0.46 70.0 15.2246 18.6885 0 
75 1 0.46 70.0 4.00622 19.4143 0 
175 1 0.46 70.0 4.79237 19.3375 0 
50 1 0.46 70.0 5.32458 19.365 0 
31 1 0.46 70.0 5.83359 19.3864 0 
297 1 0.46 70.0 6.32547 19.395 0 
257 1 0.46 70.0 6.79771 19.4009 0 
34 1 0.46 70.0 7.25747 19.4064 0 
236 1 0.46 70.0 7.7141 19.411 0 
49 1 0.46 70.0 8.16765 19.4152 0 
177 1 0.46 70.0 8.61814 19.4194 0 
166 1 0.46 70.0 9.06558 19.4238 0 
65 1 0.46 70.0 9.50984 19.4296 0 
97 1 0.46 70.0 9.95421 19.4321 0 
224 1 0.46 70.0 10.3986 19.4299 0 
285 1 0.46 70.0 10.8429 19.4244 0 
105 1 0.46 70.0 11.2901 19.4197 0 
245 1 0.46 70.0 11.7402 19.4153 0 
220 1 0.46 70.0 12.1932 19.4108 0 
214 1 0.46 70.0 12.6488 19.4062 0 
125 1 0.46 70.0 13.1071 19.4013 0 
225 1 0.46 70.0 13.5724 19.3977 0 
136 1 0.46 70.0 14.0584 19.3948 0 
12 1 0.46 70.0 14.5706 19.3788 0 
107 1 0.46 70.0 15.1104 19.3137 0 
7 1 0.46 70.0 15.6127 19.1285 0 
87 1 0.46 70.0 4.47692 19.7313 0 
33 1 0.46 70.0 5.06014 19.7714 0 
226 1 0.46 70.0 5.58655 19.7762 0 
99 1 0.46 70.0 6.08322 19.7819 0 
91 1 0.46 70.0 6.56165 19.7876 0 
55 1 0.46 70.0 7.0267 19.7933 0 
152 1 0.46 70.0 7.48493 19.7968 0 
279 1 0.46 70.0 7.94012 19.8 0 
30 1 0.46 70.0 8.3922 19.803 0 
258 1 0.46 70.0 8.84123 19.8061 0 
259 1 0.46 70.0 9.2874 19.8097 0 
4 1 0.46 70.0 9.73155 19.8138 0 
92 1 0.46 70.0 10.1767 19.8138 0 
117 1 0.46 70.0 10.6208 19.81 0 
249 1 0.46 70.0 11.0669 19.8064 0 
179 1 0.46 70.0 11.5157 19.8032 0 
280 1 0.46 70.0 11.9672 19.8001 0 
8 1 0.46 70.0 12.4215 19.7969 0 
161 1 0.46 70.0 12.8787 19.7936 0 
116 1 0.46 70.0 13.3386 19.7898 0 
243 1 0.46 70.0 13.8142 19.784 0 
83 1 0.46 70.0 14.3122 19.778 0 
47 1 0.46 70.0 14.8449 19.7708 0 
269 1 0.46 70.0 15.3992 19.7299 0 
141 1 0.46 70.0 15.96 19.6057 0 
