# LAMMPS data file for rigid bodies

303 atoms

1 atom types

0.0 	 20.0 	 xlo xhi 
0.0 	 20.0 	 ylo yhi 
-1.0 	 1.0 	 zlo zhi 

Atoms

140 1 0.46 70.0 9.00308 13.6946 0 
302 1 0.46 70.0 9.51815 13.4112 0 
107 1 0.46 70.0 10.3405 13.4187 0 
21 1 0.46 70.0 11.1087 13.5393 0 
268 1 0.46 70.0 7.63521 13.8912 0 
82 1 0.46 70.0 8.48979 13.9209 0 
189 1 0.46 70.0 9.42753 14.0804 0 
129 1 0.46 70.0 9.90987 13.8243 0 
215 1 0.46 70.0 10.2535 14.2091 0 
242 1 0.46 70.0 10.6614 13.8944 0 
281 1 0.46 70.0 11.1303 14.1767 0 
235 1 0.46 70.0 11.6292 13.8643 0 
106 1 0.46 70.0 12.1223 14.1685 0 
69 1 0.46 70.0 12.8922 14.1951 0 
203 1 0.46 70.0 6.54346 14.6113 0 
24 1 0.46 70.0 7.07549 14.2537 0 
236 1 0.46 70.0 7.5711 14.5465 0 
251 1 0.46 70.0 8.0582 14.2566 0 
298 1 0.46 70.0 8.51355 14.5391 0 
173 1 0.46 70.0 8.9632 14.3002 0 
159 1 0.46 70.0 9.38 14.6654 0 
230 1 0.46 70.0 9.80906 14.4366 0 
121 1 0.46 70.0 10.6794 14.4744 0 
53 1 0.46 70.0 11.5803 14.4578 0 
198 1 0.46 70.0 12.4999 14.5859 0 
40 1 0.46 70.0 13.4086 14.6256 0 
295 1 0.46 70.0 6.04826 15.0584 0 
285 1 0.46 70.0 7.09408 14.8599 0 
269 1 0.46 70.0 7.58633 15.0953 0 
261 1 0.46 70.0 8.04731 14.7942 0 
81 1 0.46 70.0 8.49977 15.0589 0 
192 1 0.46 70.0 8.94454 14.8429 0 
273 1 0.46 70.0 9.79316 14.9635 0 
246 1 0.46 70.0 10.2272 14.7332 0 
289 1 0.46 70.0 10.6376 14.9902 0 
84 1 0.46 70.0 11.0989 14.7314 0 
158 1 0.46 70.0 11.5068 14.9955 0 
119 1 0.46 70.0 11.9998 14.7601 0 
228 1 0.46 70.0 12.9391 14.9286 0 
59 1 0.46 70.0 13.9052 15.0177 0 
62 1 0.46 70.0 5.59694 15.5397 0 
168 1 0.46 70.0 6.62419 15.1868 0 
72 1 0.46 70.0 7.14779 15.3974 0 
193 1 0.46 70.0 8.05336 15.2876 0 
91 1 0.46 70.0 8.50737 15.542 0 
225 1 0.46 70.0 8.93932 15.3215 0 
178 1 0.46 70.0 9.38 15.1933 0 
138 1 0.46 70.0 9.783 15.4645 0 
185 1 0.46 70.0 10.2007 15.2332 0 
166 1 0.46 70.0 10.5998 15.4803 0 
200 1 0.46 70.0 11.0407 15.2385 0 
111 1 0.46 70.0 11.4392 15.4879 0 
17 1 0.46 70.0 11.9195 15.2566 0 
254 1 0.46 70.0 12.4395 15.114 0 
28 1 0.46 70.0 12.8951 15.4674 0 
299 1 0.46 70.0 13.3904 15.2772 0 
183 1 0.46 70.0 14.5154 15.3682 0 
115 1 0.46 70.0 6.17824 15.6289 0 
36 1 0.46 70.0 6.70942 15.6972 0 
32 1 0.46 70.0 7.20801 15.9036 0 
217 1 0.46 70.0 7.6198 15.6103 0 
31 1 0.46 70.0 8.07654 15.7469 0 
142 1 0.46 70.0 8.93454 15.7786 0 
249 1 0.46 70.0 9.38026 15.6908 0 
58 1 0.46 70.0 9.77862 15.9437 0 
219 1 0.46 70.0 10.1818 15.7153 0 
26 1 0.46 70.0 10.5728 15.9568 0 
160 1 0.46 70.0 10.9915 15.7193 0 
171 1 0.46 70.0 11.3833 15.9578 0 
8 1 0.46 70.0 11.8418 15.7277 0 
174 1 0.46 70.0 12.3044 15.574 0 
208 1 0.46 70.0 12.6555 15.883 0 
256 1 0.46 70.0 13.5187 15.7882 0 
271 1 0.46 70.0 13.9964 15.6026 0 
167 1 0.46 70.0 14.5581 15.9747 0 
132 1 0.46 70.0 5.16124 16.0444 0 
293 1 0.46 70.0 5.7503 16.1033 0 
130 1 0.46 70.0 6.2789 16.1455 0 
110 1 0.46 70.0 6.7777 16.1707 0 
221 1 0.46 70.0 7.25535 16.3899 0 
177 1 0.46 70.0 7.66145 16.1067 0 
270 1 0.46 70.0 8.11046 16.1995 0 
99 1 0.46 70.0 8.52657 16.0078 0 
125 1 0.46 70.0 8.93216 16.2301 0 
280 1 0.46 70.0 9.37941 16.1681 0 
66 1 0.46 70.0 9.77171 16.4075 0 
88 1 0.46 70.0 10.1716 16.1817 0 
12 1 0.46 70.0 10.5634 16.4198 0 
290 1 0.46 70.0 10.9694 16.1834 0 
137 1 0.46 70.0 11.3618 16.4215 0 
233 1 0.46 70.0 11.7826 16.1811 0 
23 1 0.46 70.0 12.2246 16.0632 0 
108 1 0.46 70.0 12.6425 16.3516 0 
196 1 0.46 70.0 13.0977 16.0146 0 
85 1 0.46 70.0 13.5458 16.3165 0 
105 1 0.46 70.0 14.0274 16.1502 0 
227 1 0.46 70.0 15.0403 16.3748 0 
288 1 0.46 70.0 4.73246 16.6042 0 
71 1 0.46 70.0 5.35143 16.5942 0 
169 1 0.46 70.0 5.87991 16.6199 0 
294 1 0.46 70.0 6.37375 16.6307 0 
116 1 0.46 70.0 6.86159 16.6217 0 
300 1 0.46 70.0 7.66341 16.5903 0 
80 1 0.46 70.0 8.1129 16.6459 0 
74 1 0.46 70.0 8.52782 16.4714 0 
65 1 0.46 70.0 8.92881 16.675 0 
190 1 0.46 70.0 9.37425 16.6287 0 
44 1 0.46 70.0 9.76561 16.8673 0 
117 1 0.46 70.0 10.1641 16.6388 0 
114 1 0.46 70.0 10.5501 16.8864 0 
5 1 0.46 70.0 10.959 16.6394 0 
250 1 0.46 70.0 11.3495 16.8807 0 
187 1 0.46 70.0 11.7681 16.6296 0 
18 1 0.46 70.0 12.2114 16.5248 0 
247 1 0.46 70.0 12.6253 16.8157 0 
240 1 0.46 70.0 13.0847 16.4951 0 
276 1 0.46 70.0 13.5119 16.8129 0 
231 1 0.46 70.0 13.9822 16.6763 0 
113 1 0.46 70.0 14.4851 16.5435 0 
90 1 0.46 70.0 15.4997 16.8816 0 
264 1 0.46 70.0 5.04014 17.0832 0 
43 1 0.46 70.0 5.58753 17.0971 0 
103 1 0.46 70.0 6.09428 17.0884 0 
54 1 0.46 70.0 6.64602 17.0238 0 
67 1 0.46 70.0 7.16745 16.9639 0 
211 1 0.46 70.0 7.61584 17.0421 0 
237 1 0.46 70.0 8.06656 17.0798 0 
209 1 0.46 70.0 8.50704 16.9736 0 
238 1 0.46 70.0 8.93683 17.1069 0 
97 1 0.46 70.0 9.38002 17.0854 0 
6 1 0.46 70.0 10.1486 17.088 0 
2 1 0.46 70.0 10.9477 17.0864 0 
176 1 0.46 70.0 11.7578 17.0695 0 
3 1 0.46 70.0 12.2013 16.9826 0 
255 1 0.46 70.0 12.6163 17.2977 0 
52 1 0.46 70.0 13.0611 16.9522 0 
9 1 0.46 70.0 13.4975 17.2877 0 
76 1 0.46 70.0 13.9437 17.1783 0 
213 1 0.46 70.0 14.4171 17.075 0 
83 1 0.46 70.0 14.9297 16.971 0 
275 1 0.46 70.0 4.63338 17.4792 0 
70 1 0.46 70.0 5.26979 17.561 0 
127 1 0.46 70.0 5.79741 17.5629 0 
229 1 0.46 70.0 6.41561 17.4175 0 
218 1 0.46 70.0 6.90886 17.3997 0 
57 1 0.46 70.0 7.36382 17.425 0 
148 1 0.46 70.0 7.81865 17.4549 0 
181 1 0.46 70.0 8.27518 17.4685 0 
265 1 0.46 70.0 8.71459 17.4823 0 
201 1 0.46 70.0 9.16758 17.4887 0 
197 1 0.46 70.0 9.61481 17.4685 0 
165 1 0.46 70.0 10.0495 17.5076 0 
239 1 0.46 70.0 10.4829 17.3952 0 
78 1 0.46 70.0 10.9036 17.5142 0 
179 1 0.46 70.0 11.3221 17.3607 0 
161 1 0.46 70.0 11.7446 17.4974 0 
101 1 0.46 70.0 12.1864 17.436 0 
34 1 0.46 70.0 13.0572 17.4027 0 
86 1 0.46 70.0 13.3534 17.7652 0 
180 1 0.46 70.0 13.8031 17.6738 0 
222 1 0.46 70.0 14.2706 17.585 0 
260 1 0.46 70.0 14.775 17.5042 0 
61 1 0.46 70.0 15.3465 17.4627 0 
19 1 0.46 70.0 4.28453 17.9912 0 
4 1 0.46 70.0 4.92391 17.9819 0 
15 1 0.46 70.0 5.48797 18.02 0 
207 1 0.46 70.0 5.9298 18.1858 0 
29 1 0.46 70.0 6.18565 17.8094 0 
253 1 0.46 70.0 6.42702 18.2066 0 
170 1 0.46 70.0 6.66919 17.8078 0 
143 1 0.46 70.0 6.89051 18.2128 0 
118 1 0.46 70.0 7.12736 17.8194 0 
204 1 0.46 70.0 7.58191 17.8389 0 
112 1 0.46 70.0 8.03607 17.854 0 
210 1 0.46 70.0 8.48562 17.8691 0 
155 1 0.46 70.0 8.93303 17.8757 0 
51 1 0.46 70.0 9.377 17.8797 0 
199 1 0.46 70.0 9.81069 17.8846 0 
216 1 0.46 70.0 10.2522 17.892 0 
259 1 0.46 70.0 10.6789 17.8879 0 
153 1 0.46 70.0 11.1251 17.8855 0 
104 1 0.46 70.0 11.5553 17.8822 0 
234 1 0.46 70.0 12.0071 17.8584 0 
11 1 0.46 70.0 12.4538 17.8045 0 
49 1 0.46 70.0 12.6924 18.2206 0 
120 1 0.46 70.0 12.8994 17.8196 0 
92 1 0.46 70.0 13.1499 18.2014 0 
13 1 0.46 70.0 13.6061 18.1504 0 
42 1 0.46 70.0 14.0671 18.0765 0 
109 1 0.46 70.0 14.5526 18.0053 0 
277 1 0.46 70.0 15.0805 17.9536 0 
154 1 0.46 70.0 15.7278 17.9551 0 
14 1 0.46 70.0 4.60577 18.4569 0 
144 1 0.46 70.0 5.18595 18.446 0 
35 1 0.46 70.0 5.66948 18.5629 0 
262 1 0.46 70.0 6.17802 18.5947 0 
241 1 0.46 70.0 6.65436 18.6058 0 
41 1 0.46 70.0 7.34699 18.2257 0 
10 1 0.46 70.0 7.11313 18.6142 0 
98 1 0.46 70.0 7.80166 18.2391 0 
47 1 0.46 70.0 7.56906 18.6249 0 
156 1 0.46 70.0 8.25345 18.2525 0 
206 1 0.46 70.0 8.0224 18.6361 0 
226 1 0.46 70.0 8.7031 18.2625 0 
272 1 0.46 70.0 8.4734 18.646 0 
283 1 0.46 70.0 9.14833 18.2691 0 
301 1 0.46 70.0 8.92125 18.6543 0 
149 1 0.46 70.0 9.58829 18.2764 0 
48 1 0.46 70.0 9.36494 18.6621 0 
284 1 0.46 70.0 10.0267 18.2805 0 
20 1 0.46 70.0 10.4658 18.284 0 
184 1 0.46 70.0 10.9043 18.277 0 
291 1 0.46 70.0 11.3468 18.2753 0 
172 1 0.46 70.0 11.1295 18.6633 0 
141 1 0.46 70.0 11.7949 18.2589 0 
292 1 0.46 70.0 11.5782 18.6538 0 
95 1 0.46 70.0 12.2448 18.2373 0 
33 1 0.46 70.0 12.0286 18.6386 0 
145 1 0.46 70.0 12.4797 18.6235 0 
102 1 0.46 70.0 12.9345 18.6069 0 
124 1 0.46 70.0 13.3927 18.5891 0 
188 1 0.46 70.0 13.8513 18.5435 0 
248 1 0.46 70.0 14.3243 18.4854 0 
297 1 0.46 70.0 14.8232 18.4336 0 
136 1 0.46 70.0 15.3756 18.4022 0 
134 1 0.46 70.0 4.18788 18.8785 0 
267 1 0.46 70.0 4.90728 18.8839 0 
45 1 0.46 70.0 5.41578 18.9528 0 
122 1 0.46 70.0 5.92845 18.9814 0 
252 1 0.46 70.0 6.41541 18.997 0 
232 1 0.46 70.0 6.88012 19.0039 0 
214 1 0.46 70.0 7.33738 19.0118 0 
7 1 0.46 70.0 7.79203 19.0205 0 
223 1 0.46 70.0 8.24427 19.029 0 
279 1 0.46 70.0 8.69377 19.0368 0 
220 1 0.46 70.0 9.14002 19.0444 0 
151 1 0.46 70.0 9.58265 19.0523 0 
38 1 0.46 70.0 9.80528 18.6688 0 
96 1 0.46 70.0 10.0248 19.0569 0 
63 1 0.46 70.0 10.2452 18.6716 0 
212 1 0.46 70.0 10.4674 19.0558 0 
266 1 0.46 70.0 10.6864 18.6687 0 
27 1 0.46 70.0 10.911 19.0505 0 
89 1 0.46 70.0 11.3585 19.043 0 
39 1 0.46 70.0 11.809 19.0331 0 
243 1 0.46 70.0 12.261 19.0214 0 
278 1 0.46 70.0 12.7153 19.0084 0 
87 1 0.46 70.0 13.172 18.9958 0 
123 1 0.46 70.0 13.6315 18.9802 0 
205 1 0.46 70.0 14.1 18.9418 0 
244 1 0.46 70.0 14.5862 18.9012 0 
131 1 0.46 70.0 15.1061 18.8603 0 
303 1 0.46 70.0 15.7636 18.7906 0 
163 1 0.46 70.0 4.58821 19.2866 0 
64 1 0.46 70.0 5.14583 19.3572 0 
139 1 0.46 70.0 5.67421 19.3739 0 
1 1 0.46 70.0 6.17311 19.3871 0 
286 1 0.46 70.0 6.64632 19.3936 0 
16 1 0.46 70.0 7.10565 19.4001 0 
73 1 0.46 70.0 7.56187 19.4063 0 
135 1 0.46 70.0 8.01544 19.4127 0 
147 1 0.46 70.0 8.46638 19.4189 0 
79 1 0.46 70.0 8.91455 19.425 0 
263 1 0.46 70.0 9.36009 19.4318 0 
22 1 0.46 70.0 9.80294 19.4384 0 
55 1 0.46 70.0 10.247 19.4395 0 
157 1 0.46 70.0 10.6907 19.435 0 
75 1 0.46 70.0 11.1378 19.4291 0 
202 1 0.46 70.0 11.5875 19.4224 0 
128 1 0.46 70.0 12.0393 19.4145 0 
164 1 0.46 70.0 12.4931 19.4054 0 
68 1 0.46 70.0 12.9488 19.396 0 
126 1 0.46 70.0 13.4067 19.3873 0 
257 1 0.46 70.0 13.8714 19.3723 0 
100 1 0.46 70.0 14.3507 19.3498 0 
133 1 0.46 70.0 14.8534 19.322 0 
50 1 0.46 70.0 15.4093 19.266 0 
195 1 0.46 70.0 16.061 19.3153 0 
186 1 0.46 70.0 4.2032 19.667 0 
258 1 0.46 70.0 4.8466 19.7571 0 
194 1 0.46 70.0 5.41397 19.7735 0 
274 1 0.46 70.0 5.92757 19.7776 0 
146 1 0.46 70.0 6.40938 19.7834 0 
162 1 0.46 70.0 6.87383 19.7894 0 
30 1 0.46 70.0 7.33168 19.7937 0 
182 1 0.46 70.0 7.78666 19.7979 0 
287 1 0.46 70.0 8.23891 19.802 0 
152 1 0.46 70.0 8.68837 19.8062 0 
46 1 0.46 70.0 9.13502 19.8104 0 
191 1 0.46 70.0 9.57913 19.8165 0 
245 1 0.46 70.0 10.0253 19.8184 0 
37 1 0.46 70.0 10.4719 19.8176 0 
56 1 0.46 70.0 10.9173 19.8122 0 
282 1 0.46 70.0 11.3656 19.8081 0 
150 1 0.46 70.0 11.8164 19.8034 0 
93 1 0.46 70.0 12.2694 19.7981 0 
175 1 0.46 70.0 12.7242 19.7923 0 
77 1 0.46 70.0 13.1808 19.7865 0 
224 1 0.46 70.0 13.6395 19.7812 0 
60 1 0.46 70.0 14.1064 19.7757 0 
25 1 0.46 70.0 14.5949 19.7711 0 
94 1 0.46 70.0 15.1136 19.7481 0 
296 1 0.46 70.0 15.666 19.7249 0 
