# LAMMPS data file for rigid bodies

303 atoms

1 atom types

0.0 	 20.0 	 xlo xhi 
0.0 	 20.0 	 ylo yhi 
-1.0 	 1.0 	 zlo zhi 

Atoms

159 1 0.46 70.0 9.66326 13.1858 0 
20 1 0.46 70.0 10.3758 13.2105 0 
232 1 0.46 70.0 8.73443 13.5293 0 
39 1 0.46 70.0 9.31981 13.6614 0 
86 1 0.46 70.0 9.8944 13.7281 0 
250 1 0.46 70.0 10.4357 13.7656 0 
215 1 0.46 70.0 10.9642 13.5901 0 
52 1 0.46 70.0 11.5685 13.5494 0 
33 1 0.46 70.0 7.29616 14.1417 0 
24 1 0.46 70.0 7.96788 13.9499 0 
122 1 0.46 70.0 8.5374 14.0598 0 
42 1 0.46 70.0 9.0778 14.134 0 
276 1 0.46 70.0 9.61414 14.1837 0 
32 1 0.46 70.0 10.7134 14.1953 0 
231 1 0.46 70.0 11.2433 14.095 0 
57 1 0.46 70.0 11.8132 14.0658 0 
196 1 0.46 70.0 12.3982 13.975 0 
96 1 0.46 70.0 6.59277 14.5567 0 
141 1 0.46 70.0 7.7524 14.4947 0 
73 1 0.46 70.0 8.28857 14.5233 0 
180 1 0.46 70.0 8.81427 14.5714 0 
246 1 0.46 70.0 9.34006 14.6102 0 
88 1 0.46 70.0 10.1579 14.2299 0 
179 1 0.46 70.0 9.87467 14.6425 0 
82 1 0.46 70.0 10.4546 14.6424 0 
166 1 0.46 70.0 11.0103 14.5994 0 
115 1 0.46 70.0 11.5362 14.5503 0 
127 1 0.46 70.0 12.0852 14.5347 0 
222 1 0.46 70.0 12.6306 14.5116 0 
103 1 0.46 70.0 13.1959 14.4186 0 
163 1 0.46 70.0 6.31747 15.0818 0 
261 1 0.46 70.0 7.13064 14.717 0 
249 1 0.46 70.0 7.56297 14.9858 0 
213 1 0.46 70.0 8.06334 14.9833 0 
297 1 0.46 70.0 8.55267 15.0032 0 
9 1 0.46 70.0 9.03167 15.0318 0 
51 1 0.46 70.0 9.4942 15.0648 0 
95 1 0.46 70.0 9.9514 15.0956 0 
130 1 0.46 70.0 10.4072 15.0993 0 
235 1 0.46 70.0 10.8628 15.0539 0 
101 1 0.46 70.0 11.335 15.0184 0 
270 1 0.46 70.0 11.8301 14.9891 0 
21 1 0.46 70.0 12.3632 14.9983 0 
50 1 0.46 70.0 12.9184 14.9892 0 
58 1 0.46 70.0 13.5147 14.9268 0 
85 1 0.46 70.0 5.92782 15.4972 0 
256 1 0.46 70.0 6.87176 15.2143 0 
251 1 0.46 70.0 7.33826 15.4202 0 
172 1 0.46 70.0 7.84357 15.4328 0 
240 1 0.46 70.0 8.32834 15.4356 0 
111 1 0.46 70.0 8.79902 15.4561 0 
183 1 0.46 70.0 9.25902 15.4838 0 
76 1 0.46 70.0 9.71759 15.506 0 
200 1 0.46 70.0 10.1777 15.515 0 
116 1 0.46 70.0 10.6394 15.5028 0 
223 1 0.46 70.0 11.1007 15.473 0 
260 1 0.46 70.0 11.5724 15.441 0 
195 1 0.46 70.0 12.0626 15.4195 0 
47 1 0.46 70.0 12.5886 15.4551 0 
15 1 0.46 70.0 13.103 15.4747 0 
44 1 0.46 70.0 13.6293 15.4571 0 
17 1 0.46 70.0 14.2138 15.4262 0 
84 1 0.46 70.0 5.54817 15.9279 0 
288 1 0.46 70.0 6.52333 15.6333 0 
25 1 0.46 70.0 7.04225 15.7968 0 
274 1 0.46 70.0 7.59985 15.8492 0 
253 1 0.46 70.0 8.1046 15.8527 0 
113 1 0.46 70.0 8.57591 15.8677 0 
281 1 0.46 70.0 9.03473 15.8884 0 
26 1 0.46 70.0 9.49163 15.906 0 
178 1 0.46 70.0 9.94857 15.9133 0 
149 1 0.46 70.0 10.4059 15.9135 0 
245 1 0.46 70.0 10.8635 15.903 0 
128 1 0.46 70.0 11.3218 15.8793 0 
129 1 0.46 70.0 11.7879 15.8534 0 
77 1 0.46 70.0 12.2727 15.8373 0 
169 1 0.46 70.0 12.8092 15.916 0 
252 1 0.46 70.0 13.3244 15.94 0 
254 1 0.46 70.0 13.8685 15.9247 0 
238 1 0.46 70.0 14.5006 15.9914 0 
170 1 0.46 70.0 5.19128 16.3923 0 
185 1 0.46 70.0 6.15033 16.0294 0 
157 1 0.46 70.0 6.69882 16.1353 0 
247 1 0.46 70.0 7.31077 16.2072 0 
67 1 0.46 70.0 7.86543 16.2443 0 
190 1 0.46 70.0 8.35196 16.268 0 
174 1 0.46 70.0 8.81122 16.2875 0 
227 1 0.46 70.0 9.26744 16.3031 0 
298 1 0.46 70.0 9.72169 16.3098 0 
242 1 0.46 70.0 10.1756 16.3112 0 
145 1 0.46 70.0 10.6292 16.3108 0 
191 1 0.46 70.0 11.0839 16.302 0 
255 1 0.46 70.0 11.5402 16.2818 0 
233 1 0.46 70.0 11.9991 16.2606 0 
19 1 0.46 70.0 12.4749 16.2481 0 
38 1 0.46 70.0 13.0409 16.3699 0 
10 1 0.46 70.0 13.55 16.3886 0 
219 1 0.46 70.0 14.0868 16.3806 0 
59 1 0.46 70.0 5.77905 16.4582 0 
117 1 0.46 70.0 6.29947 16.5248 0 
258 1 0.46 70.0 6.7834 16.5885 0 
237 1 0.46 70.0 7.23501 16.6549 0 
31 1 0.46 70.0 7.68883 16.661 0 
150 1 0.46 70.0 8.14383 16.6719 0 
99 1 0.46 70.0 8.59761 16.6875 0 
94 1 0.46 70.0 9.04923 16.6994 0 
271 1 0.46 70.0 9.49916 16.7051 0 
108 1 0.46 70.0 9.94948 16.7077 0 
189 1 0.46 70.0 10.3999 16.7081 0 
279 1 0.46 70.0 10.8504 16.7062 0 
139 1 0.46 70.0 11.3023 16.6991 0 
212 1 0.46 70.0 11.7563 16.6825 0 
81 1 0.46 70.0 12.2133 16.6642 0 
265 1 0.46 70.0 12.6797 16.6534 0 
153 1 0.46 70.0 13.2819 16.8212 0 
13 1 0.46 70.0 13.7806 16.8307 0 
109 1 0.46 70.0 14.316 16.8149 0 
135 1 0.46 70.0 14.7882 16.5238 0 
126 1 0.46 70.0 4.88909 16.8904 0 
72 1 0.46 70.0 5.48248 16.9167 0 
36 1 0.46 70.0 6.01314 16.9563 0 
226 1 0.46 70.0 6.52125 16.9917 0 
2 1 0.46 70.0 6.99794 17.0453 0 
160 1 0.46 70.0 7.46804 17.0611 0 
244 1 0.46 70.0 7.92488 17.0705 0 
6 1 0.46 70.0 8.37782 17.0821 0 
40 1 0.46 70.0 8.82833 17.0917 0 
90 1 0.46 70.0 9.27755 17.0981 0 
262 1 0.46 70.0 9.72567 17.1025 0 
147 1 0.46 70.0 10.1738 17.1041 0 
5 1 0.46 70.0 10.6218 17.1032 0 
70 1 0.46 70.0 11.0708 17.0997 0 
205 1 0.46 70.0 11.5208 17.0932 0 
155 1 0.46 70.0 11.9731 17.0799 0 
79 1 0.46 70.0 12.4284 17.0648 0 
289 1 0.46 70.0 12.8878 17.053 0 
295 1 0.46 70.0 13.5305 17.2684 0 
243 1 0.46 70.0 14.0283 17.2591 0 
106 1 0.46 70.0 14.5778 17.2282 0 
60 1 0.46 70.0 15.1038 17.0329 0 
41 1 0.46 70.0 4.59323 17.3993 0 
158 1 0.46 70.0 5.20638 17.3853 0 
267 1 0.46 70.0 5.74371 17.3978 0 
12 1 0.46 70.0 6.2756 17.3936 0 
104 1 0.46 70.0 6.76223 17.4357 0 
137 1 0.46 70.0 7.23822 17.4527 0 
114 1 0.46 70.0 7.69723 17.4616 0 
71 1 0.46 70.0 8.15224 17.4716 0 
121 1 0.46 70.0 8.60461 17.481 0 
34 1 0.46 70.0 9.0548 17.4888 0 
197 1 0.46 70.0 9.50256 17.4946 0 
143 1 0.46 70.0 9.94991 17.4979 0 
123 1 0.46 70.0 10.3971 17.4983 0 
264 1 0.46 70.0 10.8442 17.4961 0 
192 1 0.46 70.0 11.2923 17.4913 0 
151 1 0.46 70.0 11.742 17.4838 0 
156 1 0.46 70.0 12.1937 17.473 0 
176 1 0.46 70.0 12.6491 17.4604 0 
221 1 0.46 70.0 13.1086 17.4438 0 
91 1 0.46 70.0 13.7824 17.7006 0 
92 1 0.46 70.0 14.2871 17.6727 0 
68 1 0.46 70.0 14.8524 17.6453 0 
98 1 0.46 70.0 15.4243 17.5441 0 
210 1 0.46 70.0 4.24707 17.9138 0 
209 1 0.46 70.0 4.93143 17.8586 0 
22 1 0.46 70.0 5.47292 17.8545 0 
217 1 0.46 70.0 5.8128 18.1928 0 
93 1 0.46 70.0 6.03979 17.7935 0 
182 1 0.46 70.0 6.5302 17.8282 0 
43 1 0.46 70.0 7.00819 17.8427 0 
229 1 0.46 70.0 7.46945 17.8503 0 
132 1 0.46 70.0 7.92622 17.8593 0 
119 1 0.46 70.0 8.38012 17.8683 0 
236 1 0.46 70.0 8.8315 17.8765 0 
69 1 0.46 70.0 9.28037 17.8835 0 
89 1 0.46 70.0 9.72692 17.8887 0 
28 1 0.46 70.0 10.1734 17.8906 0 
291 1 0.46 70.0 10.62 17.8896 0 
53 1 0.46 70.0 11.0676 17.8873 0 
187 1 0.46 70.0 11.5153 17.8812 0 
273 1 0.46 70.0 11.9655 17.8721 0 
181 1 0.46 70.0 12.4189 17.8615 0 
142 1 0.46 70.0 12.8765 17.8499 0 
296 1 0.46 70.0 13.3421 17.8282 0 
203 1 0.46 70.0 13.5785 18.2135 0 
100 1 0.46 70.0 14.0327 18.1173 0 
208 1 0.46 70.0 14.5471 18.0809 0 
102 1 0.46 70.0 15.1353 18.0789 0 
290 1 0.46 70.0 15.7496 18.09 0 
18 1 0.46 70.0 4.63138 18.3195 0 
299 1 0.46 70.0 5.18404 18.331 0 
118 1 0.46 70.0 5.58401 18.5894 0 
87 1 0.46 70.0 6.07028 18.6189 0 
207 1 0.46 70.0 6.30066 18.2229 0 
16 1 0.46 70.0 6.54748 18.6238 0 
300 1 0.46 70.0 6.77805 18.2327 0 
294 1 0.46 70.0 7.01442 18.626 0 
269 1 0.46 70.0 7.24218 18.2382 0 
234 1 0.46 70.0 7.47324 18.6323 0 
211 1 0.46 70.0 7.69999 18.246 0 
198 1 0.46 70.0 7.92933 18.6392 0 
199 1 0.46 70.0 8.15505 18.2541 0 
105 1 0.46 70.0 8.38281 18.6463 0 
184 1 0.46 70.0 8.60748 18.2621 0 
107 1 0.46 70.0 8.83371 18.6534 0 
293 1 0.46 70.0 9.05722 18.2696 0 
302 1 0.46 70.0 9.28199 18.6605 0 
97 1 0.46 70.0 9.50404 18.2763 0 
131 1 0.46 70.0 9.72766 18.6665 0 
188 1 0.46 70.0 9.95034 18.2801 0 
171 1 0.46 70.0 10.3966 18.2802 0 
177 1 0.46 70.0 10.62 18.6659 0 
162 1 0.46 70.0 10.8434 18.2778 0 
280 1 0.46 70.0 11.0689 18.6628 0 
167 1 0.46 70.0 11.293 18.2778 0 
56 1 0.46 70.0 11.739 18.2695 0 
154 1 0.46 70.0 11.9594 18.6573 0 
202 1 0.46 70.0 12.1893 18.259 0 
275 1 0.46 70.0 12.415 18.6406 0 
239 1 0.46 70.0 12.6461 18.2468 0 
277 1 0.46 70.0 12.8732 18.6319 0 
278 1 0.46 70.0 13.1061 18.2371 0 
216 1 0.46 70.0 13.3383 18.6237 0 
64 1 0.46 70.0 13.815 18.6016 0 
152 1 0.46 70.0 14.284 18.5254 0 
257 1 0.46 70.0 14.8037 18.4919 0 
62 1 0.46 70.0 15.3987 18.551 0 
282 1 0.46 70.0 4.18352 18.7092 0 
224 1 0.46 70.0 4.83221 18.7968 0 
146 1 0.46 70.0 5.30239 18.9523 0 
173 1 0.46 70.0 5.82041 19.0076 0 
14 1 0.46 70.0 6.31138 19.0139 0 
194 1 0.46 70.0 6.78554 19.0147 0 
120 1 0.46 70.0 7.2456 19.0188 0 
136 1 0.46 70.0 7.7027 19.0242 0 
29 1 0.46 70.0 8.15713 19.03 0 
54 1 0.46 70.0 8.60894 19.036 0 
75 1 0.46 70.0 9.05813 19.0424 0 
161 1 0.46 70.0 9.50433 19.0495 0 
230 1 0.46 70.0 10.1736 18.6682 0 
144 1 0.46 70.0 9.95045 19.0534 0 
303 1 0.46 70.0 10.3971 19.0525 0 
35 1 0.46 70.0 10.8445 19.0473 0 
266 1 0.46 70.0 11.2982 19.0425 0 
206 1 0.46 70.0 11.5228 18.6713 0 
225 1 0.46 70.0 12.1789 19.0283 0 
272 1 0.46 70.0 12.6401 19.0233 0 
218 1 0.46 70.0 13.102 19.017 0 
110 1 0.46 70.0 13.5725 19.0107 0 
204 1 0.46 70.0 14.0543 18.9907 0 
263 1 0.46 70.0 14.5341 18.9352 0 
83 1 0.46 70.0 15.0457 18.919 0 
186 1 0.46 70.0 15.8677 18.8527 0 
48 1 0.46 70.0 4.47386 19.2104 0 
11 1 0.46 70.0 5.0075 19.3363 0 
140 1 0.46 70.0 5.54552 19.3831 0 
259 1 0.46 70.0 6.06364 19.3989 0 
3 1 0.46 70.0 6.55163 19.4028 0 
4 1 0.46 70.0 7.01705 19.4058 0 
8 1 0.46 70.0 7.47498 19.4098 0 
286 1 0.46 70.0 7.93037 19.4141 0 
66 1 0.46 70.0 8.38316 19.4187 0 
168 1 0.46 70.0 8.8334 19.4235 0 
61 1 0.46 70.0 9.28129 19.4294 0 
148 1 0.46 70.0 9.72672 19.4354 0 
134 1 0.46 70.0 10.1734 19.4363 0 
37 1 0.46 70.0 10.62 19.4327 0 
214 1 0.46 70.0 11.0672 19.4257 0 
292 1 0.46 70.0 11.5174 19.4104 0 
228 1 0.46 70.0 11.9526 19.4007 0 
285 1 0.46 70.0 12.4102 19.4105 0 
287 1 0.46 70.0 12.8691 19.4077 0 
74 1 0.46 70.0 13.3345 19.4027 0 
7 1 0.46 70.0 13.8127 19.3963 0 
30 1 0.46 70.0 14.305 19.3761 0 
201 1 0.46 70.0 14.8113 19.3489 0 
175 1 0.46 70.0 15.4166 19.2493 0 
220 1 0.46 70.0 16.0829 19.4347 0 
124 1 0.46 70.0 4.11698 19.6442 0 
1 1 0.46 70.0 4.70909 19.7415 0 
301 1 0.46 70.0 5.27443 19.7724 0 
46 1 0.46 70.0 5.80645 19.7787 0 
55 1 0.46 70.0 6.30768 19.7863 0 
241 1 0.46 70.0 6.78537 19.7926 0 
78 1 0.46 70.0 7.24533 19.796 0 
283 1 0.46 70.0 7.70214 19.7989 0 
193 1 0.46 70.0 8.15607 19.802 0 
49 1 0.46 70.0 8.60721 19.8053 0 
65 1 0.46 70.0 9.05559 19.8088 0 
27 1 0.46 70.0 9.50148 19.8144 0 
248 1 0.46 70.0 9.94927 19.8161 0 
165 1 0.46 70.0 10.3973 19.8155 0 
80 1 0.46 70.0 10.8438 19.8107 0 
138 1 0.46 70.0 11.2917 19.8036 0 
45 1 0.46 70.0 11.737 19.7987 0 
23 1 0.46 70.0 12.1834 19.7948 0 
112 1 0.46 70.0 12.6399 19.7967 0 
164 1 0.46 70.0 13.1006 19.7932 0 
63 1 0.46 70.0 13.5734 19.7874 0 
125 1 0.46 70.0 14.058 19.7811 0 
133 1 0.46 70.0 14.5543 19.7745 0 
268 1 0.46 70.0 15.0799 19.7505 0 
284 1 0.46 70.0 15.6092 19.7298 0 
