# LAMMPS data file for rigid bodies

303 atoms

1 atom types

0.0 	 20.0 	 xlo xhi 
0.0 	 20.0 	 ylo yhi 
-1.0 	 1.0 	 zlo zhi 

Atoms

107 1 0.46 70.0 8.77803 13.7678 0 
302 1 0.46 70.0 9.28933 13.4368 0 
40 1 0.46 70.0 9.81351 13.6901 0 
298 1 0.46 70.0 10.4666 13.6645 0 
158 1 0.46 70.0 10.9711 13.383 0 
119 1 0.46 70.0 11.5217 13.6808 0 
173 1 0.46 70.0 6.89314 14.1705 0 
236 1 0.46 70.0 7.95141 13.8396 0 
230 1 0.46 70.0 8.39815 14.1819 0 
256 1 0.46 70.0 9.31649 14.0419 0 
130 1 0.46 70.0 10.1612 14.1005 0 
268 1 0.46 70.0 11.0044 13.9848 0 
28 1 0.46 70.0 12.0513 13.9606 0 
293 1 0.46 70.0 6.38494 14.6368 0 
159 1 0.46 70.0 7.47835 14.252 0 
273 1 0.46 70.0 7.96381 14.5099 0 
198 1 0.46 70.0 8.88638 14.3771 0 
231 1 0.46 70.0 9.32286 14.6418 0 
235 1 0.46 70.0 9.73073 14.3592 0 
32 1 0.46 70.0 10.1863 14.63 0 
115 1 0.46 70.0 10.6138 14.3279 0 
142 1 0.46 70.0 11.06 14.5621 0 
225 1 0.46 70.0 11.5033 14.2619 0 
5 1 0.46 70.0 11.9764 14.5296 0 
69 1 0.46 70.0 12.5521 14.2794 0 
105 1 0.46 70.0 13.457 14.5556 0 
129 1 0.46 70.0 6.97934 14.7405 0 
44 1 0.46 70.0 7.51457 14.8301 0 
84 1 0.46 70.0 8.01605 15.0434 0 
174 1 0.46 70.0 8.44469 14.7299 0 
85 1 0.46 70.0 8.90158 14.91 0 
19 1 0.46 70.0 9.7654 14.8865 0 
288 1 0.46 70.0 10.6332 14.8522 0 
264 1 0.46 70.0 11.0812 15.0814 0 
125 1 0.46 70.0 11.4988 14.8087 0 
169 1 0.46 70.0 11.9128 15.066 0 
208 1 0.46 70.0 12.395 14.8557 0 
121 1 0.46 70.0 12.9155 14.7249 0 
106 1 0.46 70.0 13.8563 15.0466 0 
140 1 0.46 70.0 5.92947 15.1286 0 
261 1 0.46 70.0 6.52914 15.1924 0 
81 1 0.46 70.0 7.07433 15.2556 0 
12 1 0.46 70.0 7.58731 15.3354 0 
257 1 0.46 70.0 8.07616 15.546 0 
117 1 0.46 70.0 8.47921 15.2464 0 
52 1 0.46 70.0 8.93262 15.3841 0 
61 1 0.46 70.0 9.35321 15.1504 0 
103 1 0.46 70.0 10.2074 15.1295 0 
131 1 0.46 70.0 9.78907 15.3709 0 
16 1 0.46 70.0 10.6416 15.334 0 
139 1 0.46 70.0 11.0778 15.5512 0 
31 1 0.46 70.0 11.5336 15.3439 0 
137 1 0.46 70.0 12.2619 15.3722 0 
240 1 0.46 70.0 12.756 15.2631 0 
17 1 0.46 70.0 13.2834 15.1624 0 
271 1 0.46 70.0 14.2179 15.5182 0 
72 1 0.46 70.0 5.50995 15.6494 0 
269 1 0.46 70.0 6.10532 15.6744 0 
97 1 0.46 70.0 6.64707 15.6966 0 
27 1 0.46 70.0 7.16613 15.7367 0 
201 1 0.46 70.0 7.65904 15.8015 0 
13 1 0.46 70.0 8.52458 15.74 0 
102 1 0.46 70.0 8.97218 15.8384 0 
292 1 0.46 70.0 9.38 15.6287 0 
241 1 0.46 70.0 9.79803 15.8305 0 
206 1 0.46 70.0 10.2155 15.6071 0 
63 1 0.46 70.0 10.6362 15.7929 0 
155 1 0.46 70.0 11.5073 15.8023 0 
116 1 0.46 70.0 11.976 15.7368 0 
265 1 0.46 70.0 12.5499 15.7501 0 
222 1 0.46 70.0 13.075 15.6735 0 
8 1 0.46 70.0 13.6209 15.5983 0 
295 1 0.46 70.0 5.1252 16.1841 0 
74 1 0.46 70.0 5.7264 16.1858 0 
237 1 0.46 70.0 6.26105 16.1706 0 
20 1 0.46 70.0 6.79491 16.1596 0 
272 1 0.46 70.0 7.28118 16.1947 0 
141 1 0.46 70.0 7.73707 16.2524 0 
11 1 0.46 70.0 8.13294 16.0302 0 
172 1 0.46 70.0 8.54442 16.2207 0 
77 1 0.46 70.0 8.99127 16.2856 0 
286 1 0.46 70.0 9.39979 16.1012 0 
228 1 0.46 70.0 9.80902 16.2857 0 
147 1 0.46 70.0 10.2069 16.0692 0 
223 1 0.46 70.0 10.6201 16.2471 0 
55 1 0.46 70.0 11.0529 16.0081 0 
301 1 0.46 70.0 11.4604 16.2545 0 
238 1 0.46 70.0 11.915 16.195 0 
291 1 0.46 70.0 12.3744 16.1749 0 
243 1 0.46 70.0 12.88 16.1343 0 
209 1 0.46 70.0 13.4001 16.0839 0 
254 1 0.46 70.0 13.9383 16.0419 0 
83 1 0.46 70.0 14.5037 16.0209 0 
183 1 0.46 70.0 15.0968 16.0287 0 
132 1 0.46 70.0 4.74357 16.7318 0 
267 1 0.46 70.0 5.39825 16.6916 0 
80 1 0.46 70.0 5.93596 16.6715 0 
112 1 0.46 70.0 6.51833 16.5797 0 
266 1 0.46 70.0 7.01777 16.5997 0 
150 1 0.46 70.0 7.48932 16.6375 0 
89 1 0.46 70.0 7.97418 16.6369 0 
202 1 0.46 70.0 8.42451 16.6576 0 
278 1 0.46 70.0 8.87498 16.7073 0 
175 1 0.46 70.0 9.33233 16.6185 0 
24 1 0.46 70.0 9.77615 16.7229 0 
162 1 0.46 70.0 10.2055 16.5665 0 
46 1 0.46 70.0 10.6439 16.6942 0 
7 1 0.46 70.0 11.0237 16.4615 0 
82 1 0.46 70.0 11.3958 16.6998 0 
37 1 0.46 70.0 11.842 16.647 0 
189 1 0.46 70.0 12.294 16.626 0 
157 1 0.46 70.0 12.7485 16.5805 0 
284 1 0.46 70.0 13.2203 16.5387 0 
101 1 0.46 70.0 13.7271 16.5161 0 
213 1 0.46 70.0 14.2586 16.51 0 
303 1 0.46 70.0 14.8457 16.5504 0 
177 1 0.46 70.0 5.08699 17.1743 0 
35 1 0.46 70.0 5.62187 17.1814 0 
197 1 0.46 70.0 6.28392 16.9924 0 
279 1 0.46 70.0 6.77457 17.0029 0 
75 1 0.46 70.0 7.2437 17.0275 0 
215 1 0.46 70.0 7.7033 17.0415 0 
164 1 0.46 70.0 8.15692 17.0565 0 
21 1 0.46 70.0 8.60588 17.0776 0 
242 1 0.46 70.0 9.0523 17.1068 0 
93 1 0.46 70.0 9.48474 17.0731 0 
203 1 0.46 70.0 9.92114 17.1342 0 
152 1 0.46 70.0 10.3368 17.0242 0 
192 1 0.46 70.0 10.7701 17.1142 0 
246 1 0.46 70.0 11.205 17.0938 0 
185 1 0.46 70.0 11.6576 17.0705 0 
138 1 0.46 70.0 12.1089 17.0466 0 
289 1 0.46 70.0 12.5647 17.0216 0 
111 1 0.46 70.0 13.0223 16.9839 0 
234 1 0.46 70.0 13.5004 16.9534 0 
188 1 0.46 70.0 14.0196 16.9668 0 
176 1 0.46 70.0 14.5482 16.9844 0 
247 1 0.46 70.0 15.2332 17.0041 0 
71 1 0.46 70.0 4.67215 17.5647 0 
127 1 0.46 70.0 5.26951 17.6693 0 
29 1 0.46 70.0 5.76047 17.7613 0 
218 1 0.46 70.0 6.04794 17.3877 0 
287 1 0.46 70.0 6.53679 17.4084 0 
26 1 0.46 70.0 7.00415 17.4202 0 
178 1 0.46 70.0 7.46247 17.4327 0 
200 1 0.46 70.0 7.91669 17.4472 0 
59 1 0.46 70.0 8.36602 17.4644 0 
275 1 0.46 70.0 8.81159 17.4857 0 
43 1 0.46 70.0 9.25723 17.4997 0 
299 1 0.46 70.0 9.68987 17.5097 0 
62 1 0.46 70.0 10.1334 17.5144 0 
168 1 0.46 70.0 10.5624 17.5037 0 
91 1 0.46 70.0 11.0049 17.4979 0 
280 1 0.46 70.0 11.4497 17.476 0 
249 1 0.46 70.0 11.8991 17.4557 0 
219 1 0.46 70.0 12.3518 17.4361 0 
160 1 0.46 70.0 12.8085 17.4166 0 
23 1 0.46 70.0 13.2677 17.3861 0 
167 1 0.46 70.0 13.7525 17.3654 0 
171 1 0.46 70.0 13.9826 17.7697 0 
60 1 0.46 70.0 14.3078 17.4319 0 
104 1 0.46 70.0 14.8567 17.4202 0 
108 1 0.46 70.0 15.5865 17.5412 0 
15 1 0.46 70.0 4.36726 18.0791 0 
170 1 0.46 70.0 4.95267 18.1083 0 
258 1 0.46 70.0 5.48389 18.1736 0 
110 1 0.46 70.0 6.02073 18.1829 0 
166 1 0.46 70.0 6.28265 17.8042 0 
45 1 0.46 70.0 6.52422 18.2032 0 
58 1 0.46 70.0 6.76567 17.8132 0 
148 1 0.46 70.0 6.98956 18.2141 0 
66 1 0.46 70.0 7.22505 17.8236 0 
51 1 0.46 70.0 7.68034 17.8365 0 
18 1 0.46 70.0 8.13165 17.8516 0 
260 1 0.46 70.0 8.57945 17.869 0 
76 1 0.46 70.0 9.02564 17.8847 0 
300 1 0.46 70.0 9.46777 17.8988 0 
221 1 0.46 70.0 9.90909 17.9037 0 
193 1 0.46 70.0 10.3508 17.9039 0 
294 1 0.46 70.0 10.7907 17.8928 0 
181 1 0.46 70.0 11.2366 17.8789 0 
239 1 0.46 70.0 11.6838 17.8602 0 
270 1 0.46 70.0 12.1337 17.8428 0 
88 1 0.46 70.0 12.5866 17.8274 0 
187 1 0.46 70.0 12.8198 18.2181 0 
233 1 0.46 70.0 13.0431 17.8116 0 
9 1 0.46 70.0 13.2768 18.2067 0 
290 1 0.46 70.0 13.5021 17.7875 0 
297 1 0.46 70.0 13.7363 18.1893 0 
53 1 0.46 70.0 14.2171 18.1638 0 
113 1 0.46 70.0 14.6 17.8901 0 
42 1 0.46 70.0 15.1394 17.874 0 
64 1 0.46 70.0 4.07437 18.6445 0 
207 1 0.46 70.0 4.67047 18.5986 0 
251 1 0.46 70.0 5.20516 18.6039 0 
36 1 0.46 70.0 5.77304 18.5724 0 
98 1 0.46 70.0 6.27851 18.5891 0 
143 1 0.46 70.0 6.754 18.6035 0 
67 1 0.46 70.0 7.44622 18.2254 0 
226 1 0.46 70.0 7.21276 18.614 0 
250 1 0.46 70.0 7.89936 18.2383 0 
3 1 0.46 70.0 7.66782 18.6247 0 
134 1 0.46 70.0 8.34944 18.2528 0 
120 1 0.46 70.0 8.11986 18.6366 0 
255 1 0.46 70.0 8.79737 18.2674 0 
87 1 0.46 70.0 8.56955 18.6491 0 
70 1 0.46 70.0 9.24291 18.2813 0 
90 1 0.46 70.0 9.01706 18.6616 0 
4 1 0.46 70.0 9.6867 18.2909 0 
163 1 0.46 70.0 10.1301 18.2931 0 
99 1 0.46 70.0 10.5743 18.2879 0 
14 1 0.46 70.0 11.0183 18.2751 0 
165 1 0.46 70.0 11.4656 18.2606 0 
118 1 0.46 70.0 11.2448 18.6556 0 
179 1 0.46 70.0 11.9146 18.2449 0 
283 1 0.46 70.0 11.6937 18.6428 0 
6 1 0.46 70.0 12.1444 18.6301 0 
190 1 0.46 70.0 12.3659 18.2305 0 
114 1 0.46 70.0 12.5975 18.6187 0 
123 1 0.46 70.0 13.0534 18.6086 0 
277 1 0.46 70.0 13.5125 18.6009 0 
276 1 0.46 70.0 13.9833 18.5866 0 
227 1 0.46 70.0 14.4829 18.5376 0 
94 1 0.46 70.0 14.9323 18.3493 0 
195 1 0.46 70.0 15.5563 18.2529 0 
217 1 0.46 70.0 4.92142 19.0851 0 
144 1 0.46 70.0 5.5308 18.9656 0 
30 1 0.46 70.0 6.0402 18.9797 0 
210 1 0.46 70.0 6.51977 18.9936 0 
38 1 0.46 70.0 6.97987 19.0025 0 
149 1 0.46 70.0 7.43658 19.0116 0 
78 1 0.46 70.0 7.89032 19.021 0 
2 1 0.46 70.0 8.34164 19.0309 0 
95 1 0.46 70.0 8.79093 19.0412 0 
133 1 0.46 70.0 9.23852 19.0514 0 
248 1 0.46 70.0 9.46237 18.6728 0 
122 1 0.46 70.0 9.68416 19.0598 0 
186 1 0.46 70.0 9.90766 18.6786 0 
253 1 0.46 70.0 10.1307 19.0617 0 
229 1 0.46 70.0 10.3529 18.6769 0 
204 1 0.46 70.0 10.5772 19.0567 0 
54 1 0.46 70.0 10.798 18.668 0 
57 1 0.46 70.0 11.0234 19.0465 0 
216 1 0.46 70.0 11.4717 19.036 0 
259 1 0.46 70.0 11.922 19.0257 0 
161 1 0.46 70.0 12.3742 19.0161 0 
180 1 0.46 70.0 12.829 19.0074 0 
92 1 0.46 70.0 13.2865 19.0 0 
50 1 0.46 70.0 13.752 18.994 0 
34 1 0.46 70.0 14.2453 18.9715 0 
136 1 0.46 70.0 14.7654 18.9129 0 
281 1 0.46 70.0 15.2686 18.7629 0 
25 1 0.46 70.0 15.8961 18.7629 0 
262 1 0.46 70.0 4.3886 19.1352 0 
232 1 0.46 70.0 5.3062 19.3692 0 
194 1 0.46 70.0 5.80739 19.3747 0 
79 1 0.46 70.0 6.28693 19.3859 0 
156 1 0.46 70.0 6.74808 19.3924 0 
220 1 0.46 70.0 7.20568 19.3994 0 
22 1 0.46 70.0 7.66068 19.4065 0 
151 1 0.46 70.0 8.11328 19.4138 0 
184 1 0.46 70.0 8.56378 19.4213 0 
39 1 0.46 70.0 9.01239 19.4291 0 
205 1 0.46 70.0 9.45901 19.4377 0 
10 1 0.46 70.0 9.90669 19.4419 0 
73 1 0.46 70.0 10.3547 19.4408 0 
41 1 0.46 70.0 10.8011 19.4334 0 
48 1 0.46 70.0 11.2493 19.4251 0 
199 1 0.46 70.0 11.699 19.4174 0 
212 1 0.46 70.0 12.1505 19.4101 0 
49 1 0.46 70.0 12.6043 19.4032 0 
153 1 0.46 70.0 13.0609 19.3971 0 
68 1 0.46 70.0 13.5208 19.3913 0 
124 1 0.46 70.0 13.9999 19.3815 0 
109 1 0.46 70.0 14.5057 19.3614 0 
154 1 0.46 70.0 15.0266 19.3206 0 
224 1 0.46 70.0 15.5541 19.2264 0 
285 1 0.46 70.0 4.01558 19.609 0 
65 1 0.46 70.0 4.58447 19.6566 0 
1 1 0.46 70.0 5.06417 19.7694 0 
146 1 0.46 70.0 5.57493 19.7762 0 
252 1 0.46 70.0 6.05441 19.7802 0 
214 1 0.46 70.0 6.51679 19.7845 0 
47 1 0.46 70.0 6.97504 19.7891 0 
263 1 0.46 70.0 7.43099 19.7937 0 
245 1 0.46 70.0 7.88468 19.7984 0 
56 1 0.46 70.0 8.33626 19.8031 0 
282 1 0.46 70.0 8.786 19.8079 0 
145 1 0.46 70.0 9.23422 19.8131 0 
100 1 0.46 70.0 9.6817 19.8183 0 
274 1 0.46 70.0 10.1311 19.8191 0 
182 1 0.46 70.0 10.5805 19.817 0 
135 1 0.46 70.0 11.0274 19.8104 0 
191 1 0.46 70.0 11.476 19.8054 0 
211 1 0.46 70.0 11.9266 19.8007 0 
96 1 0.46 70.0 12.3794 19.7961 0 
128 1 0.46 70.0 12.8346 19.7918 0 
33 1 0.46 70.0 13.2927 19.7877 0 
126 1 0.46 70.0 13.7596 19.7815 0 
296 1 0.46 70.0 14.2467 19.7757 0 
86 1 0.46 70.0 14.7629 19.7709 0 
244 1 0.46 70.0 15.3147 19.7414 0 
196 1 0.46 70.0 15.9154 19.6498 0 
