# LAMMPS data file for rigid bodies

303 atoms

1 atom types

0.0 	 20.0 	 xlo xhi 
0.0 	 20.0 	 ylo yhi 
-1.0 	 1.0 	 zlo zhi 

Atoms

59 1 0.46 70.0 9.54049 13.3153 0 
161 1 0.46 70.0 8.11524 13.5737 0 
48 1 0.46 70.0 8.99652 13.5713 0 
21 1 0.46 70.0 9.96747 13.7033 0 
24 1 0.46 70.0 10.4595 13.3799 0 
140 1 0.46 70.0 11.2287 13.4097 0 
100 1 0.46 70.0 11.7333 13.7588 0 
143 1 0.46 70.0 7.53563 13.9128 0 
182 1 0.46 70.0 8.06864 14.19 0 
184 1 0.46 70.0 8.5659 13.925 0 
31 1 0.46 70.0 9.01407 14.2166 0 
76 1 0.46 70.0 9.45558 13.9379 0 
137 1 0.46 70.0 10.3764 14.0522 0 
230 1 0.46 70.0 10.8407 13.8128 0 
245 1 0.46 70.0 11.2947 14.1115 0 
109 1 0.46 70.0 12.2089 14.0736 0 
132 1 0.46 70.0 6.99869 14.2823 0 
188 1 0.46 70.0 7.58856 14.4922 0 
50 1 0.46 70.0 8.55116 14.4741 0 
267 1 0.46 70.0 9.44 14.5091 0 
206 1 0.46 70.0 9.88618 14.2661 0 
2 1 0.46 70.0 10.3108 14.5623 0 
163 1 0.46 70.0 10.8202 14.3638 0 
225 1 0.46 70.0 11.2712 14.6534 0 
217 1 0.46 70.0 11.7435 14.4043 0 
296 1 0.46 70.0 12.6733 14.372 0 
268 1 0.46 70.0 13.1364 14.6628 0 
128 1 0.46 70.0 5.89658 15.0417 0 
233 1 0.46 70.0 6.47516 14.6727 0 
91 1 0.46 70.0 7.14698 14.8307 0 
129 1 0.46 70.0 7.64454 15.0237 0 
269 1 0.46 70.0 8.08976 14.7264 0 
56 1 0.46 70.0 8.56137 14.98 0 
171 1 0.46 70.0 9.00156 14.747 0 
264 1 0.46 70.0 9.42973 15.0207 0 
202 1 0.46 70.0 9.86112 14.791 0 
244 1 0.46 70.0 10.2685 15.0639 0 
199 1 0.46 70.0 10.7124 14.8389 0 
221 1 0.46 70.0 11.1 15.0961 0 
142 1 0.46 70.0 11.7228 14.9443 0 
272 1 0.46 70.0 12.189 14.6914 0 
179 1 0.46 70.0 12.6334 14.9721 0 
252 1 0.46 70.0 13.5996 14.9609 0 
15 1 0.46 70.0 6.29423 15.4376 0 
259 1 0.46 70.0 6.73871 15.1619 0 
208 1 0.46 70.0 7.22704 15.3777 0 
204 1 0.46 70.0 7.69817 15.5153 0 
250 1 0.46 70.0 8.12387 15.2207 0 
106 1 0.46 70.0 8.58274 15.4575 0 
168 1 0.46 70.0 9.00661 15.2394 0 
115 1 0.46 70.0 9.42966 15.5044 0 
87 1 0.46 70.0 9.8443 15.2869 0 
23 1 0.46 70.0 10.2499 15.5463 0 
213 1 0.46 70.0 10.665 15.3264 0 
260 1 0.46 70.0 11.4835 15.3473 0 
158 1 0.46 70.0 12.1718 15.2322 0 
8 1 0.46 70.0 12.6126 15.5146 0 
102 1 0.46 70.0 13.0756 15.2527 0 
293 1 0.46 70.0 13.5211 15.5337 0 
127 1 0.46 70.0 14.0917 15.2422 0 
301 1 0.46 70.0 5.7858 15.6903 0 
101 1 0.46 70.0 6.3435 15.954 0 
291 1 0.46 70.0 6.80245 15.6877 0 
112 1 0.46 70.0 7.27837 15.8892 0 
154 1 0.46 70.0 7.7414 15.9742 0 
237 1 0.46 70.0 8.16048 15.6858 0 
114 1 0.46 70.0 8.60343 15.9166 0 
32 1 0.46 70.0 9.0168 15.7065 0 
298 1 0.46 70.0 9.43305 15.9654 0 
39 1 0.46 70.0 9.84187 15.7582 0 
61 1 0.46 70.0 10.6475 15.7967 0 
75 1 0.46 70.0 11.0591 15.5798 0 
69 1 0.46 70.0 11.4493 15.8308 0 
13 1 0.46 70.0 11.8699 15.5922 0 
263 1 0.46 70.0 12.2589 15.8343 0 
85 1 0.46 70.0 13.0459 15.7938 0 
209 1 0.46 70.0 13.9825 15.7994 0 
190 1 0.46 70.0 14.6149 15.5634 0 
82 1 0.46 70.0 5.32208 16.0527 0 
6 1 0.46 70.0 5.88628 16.252 0 
153 1 0.46 70.0 6.40824 16.4397 0 
84 1 0.46 70.0 6.85524 16.18 0 
277 1 0.46 70.0 7.32162 16.3785 0 
149 1 0.46 70.0 7.77809 16.4284 0 
72 1 0.46 70.0 8.18968 16.1416 0 
35 1 0.46 70.0 8.61343 16.3727 0 
265 1 0.46 70.0 9.02172 16.1639 0 
166 1 0.46 70.0 9.42932 16.4224 0 
211 1 0.46 70.0 9.8352 16.2169 0 
242 1 0.46 70.0 10.241 16.0079 0 
65 1 0.46 70.0 10.628 16.2556 0 
97 1 0.46 70.0 11.0352 16.0449 0 
258 1 0.46 70.0 11.422 16.293 0 
303 1 0.46 70.0 11.8387 16.0779 0 
66 1 0.46 70.0 12.2274 16.3252 0 
220 1 0.46 70.0 12.6483 16.0797 0 
33 1 0.46 70.0 13.0494 16.3287 0 
141 1 0.46 70.0 13.4812 16.068 0 
155 1 0.46 70.0 13.9294 16.3226 0 
60 1 0.46 70.0 14.4524 16.0998 0 
105 1 0.46 70.0 14.9994 16.3341 0 
283 1 0.46 70.0 4.86355 16.4866 0 
292 1 0.46 70.0 5.44261 16.6303 0 
299 1 0.46 70.0 5.96372 16.7671 0 
178 1 0.46 70.0 6.89327 16.6546 0 
253 1 0.46 70.0 7.33114 16.8521 0 
216 1 0.46 70.0 7.78567 16.8802 0 
295 1 0.46 70.0 8.2069 16.594 0 
120 1 0.46 70.0 8.615 16.8253 0 
228 1 0.46 70.0 9.02025 16.6169 0 
119 1 0.46 70.0 9.41763 16.8767 0 
62 1 0.46 70.0 9.81998 16.6726 0 
53 1 0.46 70.0 10.2234 16.4651 0 
297 1 0.46 70.0 10.6089 16.712 0 
148 1 0.46 70.0 11.014 16.5026 0 
201 1 0.46 70.0 11.399 16.7502 0 
3 1 0.46 70.0 11.8082 16.5412 0 
12 1 0.46 70.0 12.194 16.7912 0 
175 1 0.46 70.0 12.6181 16.5745 0 
11 1 0.46 70.0 13.0171 16.8178 0 
205 1 0.46 70.0 13.4624 16.5879 0 
7 1 0.46 70.0 13.9026 16.8151 0 
88 1 0.46 70.0 14.4029 16.6173 0 
224 1 0.46 70.0 4.9587 17.0591 0 
47 1 0.46 70.0 5.51059 17.1583 0 
223 1 0.46 70.0 6.013 17.2562 0 
136 1 0.46 70.0 6.45408 16.9051 0 
103 1 0.46 70.0 6.90867 17.1236 0 
111 1 0.46 70.0 7.32808 17.3119 0 
157 1 0.46 70.0 7.77955 17.3304 0 
156 1 0.46 70.0 8.21127 17.0415 0 
68 1 0.46 70.0 8.60739 17.274 0 
126 1 0.46 70.0 9.00992 17.0651 0 
45 1 0.46 70.0 9.40465 17.328 0 
198 1 0.46 70.0 9.80376 17.1259 0 
159 1 0.46 70.0 10.2054 16.9198 0 
117 1 0.46 70.0 10.5882 17.166 0 
218 1 0.46 70.0 10.9922 16.9574 0 
279 1 0.46 70.0 11.3748 17.2049 0 
243 1 0.46 70.0 11.7834 16.9982 0 
290 1 0.46 70.0 12.1673 17.2489 0 
98 1 0.46 70.0 12.5811 17.0448 0 
135 1 0.46 70.0 12.9778 17.2808 0 
118 1 0.46 70.0 13.4238 17.0781 0 
160 1 0.46 70.0 13.86 17.2776 0 
73 1 0.46 70.0 14.3551 17.1199 0 
5 1 0.46 70.0 14.8871 16.8974 0 
93 1 0.46 70.0 15.396 17.2003 0 
55 1 0.46 70.0 4.49458 17.491 0 
80 1 0.46 70.0 5.08997 17.5927 0 
248 1 0.46 70.0 5.60417 17.6622 0 
52 1 0.46 70.0 6.08332 17.7294 0 
104 1 0.46 70.0 6.48711 17.3622 0 
302 1 0.46 70.0 6.92747 17.5941 0 
282 1 0.46 70.0 7.34007 17.769 0 
18 1 0.46 70.0 8.20456 17.4822 0 
193 1 0.46 70.0 8.59882 17.7208 0 
133 1 0.46 70.0 8.99881 17.5075 0 
99 1 0.46 70.0 9.39175 17.7777 0 
22 1 0.46 70.0 9.78752 17.5787 0 
212 1 0.46 70.0 10.1865 17.3722 0 
28 1 0.46 70.0 10.5661 17.6185 0 
274 1 0.46 70.0 10.969 17.4087 0 
40 1 0.46 70.0 11.349 17.6577 0 
51 1 0.46 70.0 11.7567 17.4518 0 
43 1 0.46 70.0 12.138 17.7035 0 
300 1 0.46 70.0 12.5497 17.5041 0 
191 1 0.46 70.0 12.9439 17.7373 0 
71 1 0.46 70.0 13.3763 17.5521 0 
238 1 0.46 70.0 13.8051 17.7308 0 
144 1 0.46 70.0 14.2917 17.6044 0 
58 1 0.46 70.0 14.81 17.4321 0 
275 1 0.46 70.0 15.2753 17.7742 0 
145 1 0.46 70.0 4.72736 18.0328 0 
194 1 0.46 70.0 5.28607 18.0956 0 
110 1 0.46 70.0 5.81063 18.1324 0 
254 1 0.46 70.0 6.29221 18.1987 0 
167 1 0.46 70.0 6.53345 17.8153 0 
79 1 0.46 70.0 6.81477 18.1694 0 
57 1 0.46 70.0 7.26378 18.21 0 
29 1 0.46 70.0 7.7834 17.7807 0 
210 1 0.46 70.0 8.20257 17.9136 0 
256 1 0.46 70.0 8.57485 18.1774 0 
187 1 0.46 70.0 8.98367 17.9404 0 
16 1 0.46 70.0 9.77134 18.0329 0 
89 1 0.46 70.0 10.1668 17.8225 0 
255 1 0.46 70.0 10.5416 18.0717 0 
284 1 0.46 70.0 10.9448 17.8548 0 
231 1 0.46 70.0 11.3231 18.1119 0 
183 1 0.46 70.0 11.7277 17.9014 0 
170 1 0.46 70.0 12.1054 18.155 0 
150 1 0.46 70.0 12.5164 17.9627 0 
17 1 0.46 70.0 12.9091 18.1888 0 
235 1 0.46 70.0 13.3356 18.0249 0 
285 1 0.46 70.0 13.765 18.1811 0 
121 1 0.46 70.0 14.2317 18.0753 0 
34 1 0.46 70.0 14.7304 17.9424 0 
249 1 0.46 70.0 15.7408 18.1696 0 
186 1 0.46 70.0 4.37088 18.4807 0 
165 1 0.46 70.0 4.9681 18.5367 0 
108 1 0.46 70.0 5.54275 18.5335 0 
122 1 0.46 70.0 6.04522 18.5829 0 
176 1 0.46 70.0 6.54979 18.5773 0 
197 1 0.46 70.0 7.00677 18.5953 0 
294 1 0.46 70.0 7.46035 18.6182 0 
195 1 0.46 70.0 7.71575 18.2287 0 
152 1 0.46 70.0 7.90226 18.6584 0 
49 1 0.46 70.0 8.15455 18.3259 0 
20 1 0.46 70.0 8.42897 18.6528 0 
266 1 0.46 70.0 8.97346 18.3537 0 
262 1 0.46 70.0 9.30176 18.6658 0 
63 1 0.46 70.0 9.38344 18.2255 0 
27 1 0.46 70.0 9.72391 18.5234 0 
147 1 0.46 70.0 10.1435 18.2691 0 
280 1 0.46 70.0 10.5323 18.5314 0 
241 1 0.46 70.0 10.9216 18.2892 0 
278 1 0.46 70.0 11.3585 18.6006 0 
138 1 0.46 70.0 11.7008 18.3462 0 
273 1 0.46 70.0 12.0437 18.6073 0 
189 1 0.46 70.0 12.4563 18.4372 0 
239 1 0.46 70.0 12.8515 18.6277 0 
196 1 0.46 70.0 13.2907 18.5132 0 
67 1 0.46 70.0 13.732 18.6265 0 
151 1 0.46 70.0 14.1815 18.5409 0 
95 1 0.46 70.0 14.6503 18.4386 0 
247 1 0.46 70.0 15.1615 18.3202 0 
86 1 0.46 70.0 4.08758 19.0332 0 
276 1 0.46 70.0 4.66155 19.0143 0 
78 1 0.46 70.0 5.28438 18.9362 0 
185 1 0.46 70.0 5.80056 18.9709 0 
271 1 0.46 70.0 6.30438 18.9735 0 
177 1 0.46 70.0 6.76683 18.9881 0 
14 1 0.46 70.0 7.22266 19.0039 0 
131 1 0.46 70.0 7.67495 19.0268 0 
41 1 0.46 70.0 8.1482 19.0264 0 
172 1 0.46 70.0 8.59295 19.0672 0 
125 1 0.46 70.0 8.85699 18.7309 0 
70 1 0.46 70.0 9.05247 19.0871 0 
74 1 0.46 70.0 9.48662 19.0551 0 
281 1 0.46 70.0 9.91206 19.0556 0 
4 1 0.46 70.0 10.126 18.693 0 
288 1 0.46 70.0 10.3619 19.0503 0 
181 1 0.46 70.0 10.9378 18.7011 0 
232 1 0.46 70.0 10.7849 19.0738 0 
164 1 0.46 70.0 11.2365 19.032 0 
227 1 0.46 70.0 11.6781 18.9336 0 
81 1 0.46 70.0 12.1232 19.0248 0 
134 1 0.46 70.0 12.5677 18.9788 0 
200 1 0.46 70.0 13.0478 19.0149 0 
261 1 0.46 70.0 13.4974 19.0067 0 
215 1 0.46 70.0 13.9931 19.0019 0 
236 1 0.46 70.0 14.477 18.9272 0 
240 1 0.46 70.0 14.985 18.8384 0 
219 1 0.46 70.0 15.5499 18.7465 0 
251 1 0.46 70.0 5.0432 19.3494 0 
113 1 0.46 70.0 5.56339 19.3679 0 
222 1 0.46 70.0 6.06323 19.3707 0 
94 1 0.46 70.0 6.53183 19.3829 0 
229 1 0.46 70.0 6.98947 19.3927 0 
257 1 0.46 70.0 7.44498 19.4055 0 
270 1 0.46 70.0 7.90415 19.41 0 
214 1 0.46 70.0 8.35387 19.4294 0 
44 1 0.46 70.0 8.80936 19.447 0 
180 1 0.46 70.0 9.26572 19.4504 0 
123 1 0.46 70.0 9.70216 19.4428 0 
96 1 0.46 70.0 10.1419 19.4363 0 
36 1 0.46 70.0 10.5792 19.4461 0 
10 1 0.46 70.0 11.0284 19.4305 0 
26 1 0.46 70.0 11.4725 19.4034 0 
207 1 0.46 70.0 11.9086 19.4038 0 
42 1 0.46 70.0 12.3634 19.3994 0 
54 1 0.46 70.0 12.8124 19.3961 0 
130 1 0.46 70.0 13.2756 19.4038 0 
162 1 0.46 70.0 13.7482 19.3912 0 
289 1 0.46 70.0 14.254 19.3798 0 
226 1 0.46 70.0 14.7607 19.3271 0 
25 1 0.46 70.0 15.2948 19.2626 0 
83 1 0.46 70.0 15.9188 19.2165 0 
116 1 0.46 70.0 4.23532 19.61 0 
1 1 0.46 70.0 4.75627 19.7421 0 
246 1 0.46 70.0 5.31222 19.7732 0 
146 1 0.46 70.0 5.82288 19.7757 0 
30 1 0.46 70.0 6.29831 19.779 0 
77 1 0.46 70.0 6.75708 19.7844 0 
287 1 0.46 70.0 7.21382 19.7914 0 
37 1 0.46 70.0 7.6702 19.7957 0 
173 1 0.46 70.0 8.12196 19.8044 0 
124 1 0.46 70.0 8.57549 19.8141 0 
203 1 0.46 70.0 9.03106 19.8199 0 
9 1 0.46 70.0 9.48069 19.8245 0 
107 1 0.46 70.0 9.92428 19.8193 0 
169 1 0.46 70.0 10.3648 19.8211 0 
90 1 0.46 70.0 10.8107 19.8155 0 
286 1 0.46 70.0 11.2558 19.8039 0 
234 1 0.46 70.0 11.695 19.7974 0 
192 1 0.46 70.0 12.1405 19.793 0 
92 1 0.46 70.0 12.5903 19.7917 0 
19 1 0.46 70.0 13.0441 19.7905 0 
174 1 0.46 70.0 13.5165 19.7873 0 
139 1 0.46 70.0 13.9966 19.7781 0 
38 1 0.46 70.0 14.5065 19.7734 0 
46 1 0.46 70.0 15.0331 19.7503 0 
64 1 0.46 70.0 15.6003 19.7094 0 
