# LAMMPS data file for rigid bodies

303 atoms

1 atom types

0.0 	 20.0 	 xlo xhi 
0.0 	 20.0 	 ylo yhi 
-1.0 	 1.0 	 zlo zhi 

Atoms

290 1 0.46 70.0 9.98068 13.327 0 
301 1 0.46 70.0 7.98154 13.7469 0 
219 1 0.46 70.0 9.03288 13.4525 0 
119 1 0.46 70.0 9.54324 13.7253 0 
180 1 0.46 70.0 10.5657 13.5305 0 
4 1 0.46 70.0 11.541 13.493 0 
270 1 0.46 70.0 7.12295 14.0626 0 
76 1 0.46 70.0 8.57556 13.8569 0 
40 1 0.46 70.0 9.10204 14.0704 0 
272 1 0.46 70.0 10.0704 13.9189 0 
291 1 0.46 70.0 10.5645 14.1313 0 
134 1 0.46 70.0 11.048 13.824 0 
43 1 0.46 70.0 11.5683 14.0815 0 
233 1 0.46 70.0 12.1359 13.8429 0 
107 1 0.46 70.0 6.64738 14.5115 0 
29 1 0.46 70.0 7.64983 14.2684 0 
63 1 0.46 70.0 8.18231 14.3076 0 
284 1 0.46 70.0 8.68611 14.4222 0 
158 1 0.46 70.0 9.16899 14.6039 0 
159 1 0.46 70.0 9.60066 14.2742 0 
173 1 0.46 70.0 10.0874 14.4473 0 
243 1 0.46 70.0 10.5578 14.6497 0 
65 1 0.46 70.0 11.0428 14.3682 0 
139 1 0.46 70.0 11.5183 14.5972 0 
129 1 0.46 70.0 12.0559 14.412 0 
9 1 0.46 70.0 12.6434 14.2387 0 
69 1 0.46 70.0 13.5978 14.6061 0 
292 1 0.46 70.0 6.21267 14.9514 0 
198 1 0.46 70.0 6.7884 15.093 0 
236 1 0.46 70.0 7.2068 14.6783 0 
140 1 0.46 70.0 7.73712 14.7947 0 
235 1 0.46 70.0 8.2451 14.8221 0 
114 1 0.46 70.0 8.734 14.9233 0 
279 1 0.46 70.0 9.20042 15.0978 0 
104 1 0.46 70.0 9.63375 14.7822 0 
81 1 0.46 70.0 10.096 14.9358 0 
2 1 0.46 70.0 11.0071 14.8671 0 
14 1 0.46 70.0 11.4566 15.074 0 
273 1 0.46 70.0 11.9584 14.9227 0 
277 1 0.46 70.0 12.4789 14.8031 0 
294 1 0.46 70.0 13.0241 14.7026 0 
94 1 0.46 70.0 14.0095 15.1069 0 
141 1 0.46 70.0 5.80558 15.4003 0 
11 1 0.46 70.0 6.39439 15.5126 0 
102 1 0.46 70.0 7.31903 15.2021 0 
210 1 0.46 70.0 7.82543 15.2794 0 
170 1 0.46 70.0 8.3126 15.3025 0 
187 1 0.46 70.0 8.78561 15.3931 0 
148 1 0.46 70.0 9.64798 15.2588 0 
16 1 0.46 70.0 10.0932 15.3977 0 
230 1 0.46 70.0 10.5398 15.136 0 
28 1 0.46 70.0 10.9675 15.3392 0 
163 1 0.46 70.0 11.3975 15.5288 0 
17 1 0.46 70.0 11.8742 15.3987 0 
276 1 0.46 70.0 12.3659 15.3093 0 
106 1 0.46 70.0 12.8773 15.2362 0 
84 1 0.46 70.0 13.4184 15.1776 0 
190 1 0.46 70.0 5.41715 15.8659 0 
255 1 0.46 70.0 6.01991 15.9429 0 
77 1 0.46 70.0 6.92944 15.6083 0 
72 1 0.46 70.0 7.43428 15.6868 0 
269 1 0.46 70.0 7.91959 15.7371 0 
248 1 0.46 70.0 8.38777 15.7599 0 
261 1 0.46 70.0 8.8464 15.847 0 
121 1 0.46 70.0 9.24175 15.5718 0 
208 1 0.46 70.0 9.68119 15.7174 0 
286 1 0.46 70.0 10.12 15.8542 0 
288 1 0.46 70.0 10.5201 15.6023 0 
34 1 0.46 70.0 10.9357 15.7973 0 
162 1 0.46 70.0 11.3519 15.9806 0 
51 1 0.46 70.0 11.7977 15.8522 0 
254 1 0.46 70.0 12.2601 15.7848 0 
109 1 0.46 70.0 12.7406 15.7265 0 
70 1 0.46 70.0 13.2473 15.6821 0 
271 1 0.46 70.0 13.7882 15.6459 0 
20 1 0.46 70.0 14.3861 15.5968 0 
258 1 0.46 70.0 5.04204 16.3602 0 
302 1 0.46 70.0 5.66298 16.3882 0 
6 1 0.46 70.0 6.20644 16.4379 0 
256 1 0.46 70.0 6.5602 16.0171 0 
85 1 0.46 70.0 7.06742 16.089 0 
175 1 0.46 70.0 7.55029 16.1456 0 
120 1 0.46 70.0 8.01447 16.1852 0 
179 1 0.46 70.0 8.47218 16.2094 0 
8 1 0.46 70.0 9.2991 16.0308 0 
231 1 0.46 70.0 8.92279 16.2935 0 
157 1 0.46 70.0 9.73516 16.1711 0 
123 1 0.46 70.0 10.1733 16.3023 0 
186 1 0.46 70.0 10.5631 16.0635 0 
105 1 0.46 70.0 11.0066 16.2682 0 
241 1 0.46 70.0 11.6712 16.2929 0 
86 1 0.46 70.0 12.1252 16.24 0 
25 1 0.46 70.0 12.5823 16.1913 0 
298 1 0.46 70.0 13.0615 16.1514 0 
221 1 0.46 70.0 13.5731 16.1285 0 
136 1 0.46 70.0 14.1221 16.1136 0 
280 1 0.46 70.0 14.7339 16.093 0 
174 1 0.46 70.0 5.33232 16.8504 0 
55 1 0.46 70.0 5.88085 16.8733 0 
239 1 0.46 70.0 6.71325 16.4911 0 
293 1 0.46 70.0 7.1903 16.5497 0 
37 1 0.46 70.0 7.64743 16.5942 0 
61 1 0.46 70.0 8.10229 16.631 0 
93 1 0.46 70.0 8.55557 16.6554 0 
133 1 0.46 70.0 9.00299 16.7314 0 
153 1 0.46 70.0 9.37997 16.4841 0 
122 1 0.46 70.0 9.8142 16.6184 0 
161 1 0.46 70.0 10.2419 16.7407 0 
130 1 0.46 70.0 10.62 16.5155 0 
92 1 0.46 70.0 11.0167 16.7159 0 
222 1 0.46 70.0 11.4628 16.6874 0 
264 1 0.46 70.0 11.9258 16.6702 0 
78 1 0.46 70.0 12.3835 16.6377 0 
115 1 0.46 70.0 12.8482 16.6 0 
297 1 0.46 70.0 13.3373 16.5735 0 
54 1 0.46 70.0 13.8645 16.573 0 
154 1 0.46 70.0 14.4314 16.5815 0 
268 1 0.46 70.0 15.0657 16.6011 0 
295 1 0.46 70.0 4.67089 16.9041 0 
89 1 0.46 70.0 5.03714 17.3275 0 
202 1 0.46 70.0 5.58175 17.3248 0 
278 1 0.46 70.0 6.11355 17.3193 0 
67 1 0.46 70.0 6.3948 16.903 0 
45 1 0.46 70.0 6.87313 16.949 0 
283 1 0.46 70.0 7.32984 16.9971 0 
164 1 0.46 70.0 7.78388 17.0309 0 
199 1 0.46 70.0 8.23457 17.0632 0 
205 1 0.46 70.0 8.68203 17.0899 0 
259 1 0.46 70.0 9.12535 17.147 0 
228 1 0.46 70.0 9.50879 16.9475 0 
229 1 0.46 70.0 9.93614 17.0799 0 
226 1 0.46 70.0 10.38 17.1424 0 
108 1 0.46 70.0 10.8122 17.1081 0 
169 1 0.46 70.0 11.2623 17.0958 0 
60 1 0.46 70.0 11.7127 17.0734 0 
12 1 0.46 70.0 12.1693 17.0567 0 
75 1 0.46 70.0 12.6276 17.0319 0 
213 1 0.46 70.0 13.0971 17.004 0 
181 1 0.46 70.0 13.5937 16.9889 0 
244 1 0.46 70.0 14.1429 17.0141 0 
27 1 0.46 70.0 14.7301 17.0566 0 
99 1 0.46 70.0 15.3802 17.1456 0 
223 1 0.46 70.0 4.61827 17.7063 0 
144 1 0.46 70.0 5.85002 17.7354 0 
125 1 0.46 70.0 6.34744 17.7573 0 
152 1 0.46 70.0 6.60152 17.3531 0 
185 1 0.46 70.0 7.06307 17.3932 0 
87 1 0.46 70.0 7.51953 17.4244 0 
177 1 0.46 70.0 7.9734 17.4474 0 
24 1 0.46 70.0 8.4225 17.4745 0 
137 1 0.46 70.0 8.86339 17.5059 0 
156 1 0.46 70.0 9.30762 17.5308 0 
287 1 0.46 70.0 9.72999 17.4761 0 
19 1 0.46 70.0 10.1642 17.5216 0 
247 1 0.46 70.0 10.6118 17.5172 0 
38 1 0.46 70.0 11.0525 17.4953 0 
42 1 0.46 70.0 11.501 17.4787 0 
149 1 0.46 70.0 11.9518 17.4605 0 
118 1 0.46 70.0 12.407 17.4455 0 
184 1 0.46 70.0 12.8651 17.4251 0 
211 1 0.46 70.0 13.3361 17.4046 0 
147 1 0.46 70.0 13.8381 17.3969 0 
206 1 0.46 70.0 14.4092 17.4583 0 
266 1 0.46 70.0 14.9988 17.559 0 
172 1 0.46 70.0 5.26559 17.7946 0 
132 1 0.46 70.0 4.91082 18.209 0 
216 1 0.46 70.0 5.60562 18.1443 0 
194 1 0.46 70.0 6.10417 18.1638 0 
39 1 0.46 70.0 6.57596 18.1856 0 
242 1 0.46 70.0 6.81614 17.7893 0 
232 1 0.46 70.0 7.03458 18.2062 0 
246 1 0.46 70.0 7.27403 17.8147 0 
52 1 0.46 70.0 7.49026 18.2212 0 
189 1 0.46 70.0 7.72883 17.8336 0 
299 1 0.46 70.0 8.17941 17.8563 0 
100 1 0.46 70.0 8.62614 17.8825 0 
74 1 0.46 70.0 9.07183 17.9045 0 
281 1 0.46 70.0 9.51845 17.9101 0 
240 1 0.46 70.0 9.95067 17.9064 0 
253 1 0.46 70.0 10.3942 17.9074 0 
33 1 0.46 70.0 10.8395 17.8968 0 
44 1 0.46 70.0 11.2847 17.8791 0 
124 1 0.46 70.0 11.7337 17.8632 0 
167 1 0.46 70.0 12.1854 17.8479 0 
49 1 0.46 70.0 12.6406 17.8349 0 
57 1 0.46 70.0 13.0987 17.8195 0 
113 1 0.46 70.0 13.3302 18.2147 0 
50 1 0.46 70.0 13.5692 17.8024 0 
32 1 0.46 70.0 13.7952 18.2034 0 
250 1 0.46 70.0 14.0705 17.8025 0 
83 1 0.46 70.0 14.6476 17.921 0 
224 1 0.46 70.0 14.2823 18.2158 0 
225 1 0.46 70.0 15.1043 18.1845 0 
183 1 0.46 70.0 15.539 17.8078 0 
46 1 0.46 70.0 4.28446 18.2288 0 
71 1 0.46 70.0 5.31886 18.5183 0 
251 1 0.46 70.0 5.84881 18.5675 0 
48 1 0.46 70.0 6.33454 18.5841 0 
1 1 0.46 70.0 6.79692 18.5983 0 
262 1 0.46 70.0 7.25425 18.6099 0 
289 1 0.46 70.0 7.94257 18.2395 0 
145 1 0.46 70.0 7.70844 18.6241 0 
237 1 0.46 70.0 8.39225 18.2605 0 
98 1 0.46 70.0 8.1602 18.6404 0 
5 1 0.46 70.0 8.841 18.2805 0 
96 1 0.46 70.0 8.61067 18.6571 0 
260 1 0.46 70.0 9.28943 18.2928 0 
80 1 0.46 70.0 9.73317 18.2989 0 
203 1 0.46 70.0 10.1749 18.2955 0 
62 1 0.46 70.0 10.62 18.2894 0 
97 1 0.46 70.0 11.0659 18.2769 0 
117 1 0.46 70.0 11.5134 18.2619 0 
10 1 0.46 70.0 11.2912 18.6569 0 
22 1 0.46 70.0 11.7406 18.6446 0 
53 1 0.46 70.0 11.9635 18.248 0 
26 1 0.46 70.0 12.1924 18.6332 0 
151 1 0.46 70.0 12.4164 18.2354 0 
116 1 0.46 70.0 12.8721 18.2247 0 
103 1 0.46 70.0 12.6467 18.6232 0 
204 1 0.46 70.0 13.1041 18.6148 0 
296 1 0.46 70.0 13.5644 18.6092 0 
215 1 0.46 70.0 14.0401 18.6043 0 
142 1 0.46 70.0 14.6544 18.4977 0 
3 1 0.46 70.0 15.7284 18.4176 0 
7 1 0.46 70.0 4.17418 19.1025 0 
165 1 0.46 70.0 4.60896 18.6984 0 
143 1 0.46 70.0 5.07065 18.9288 0 
285 1 0.46 70.0 5.58662 18.9612 0 
35 1 0.46 70.0 6.08816 18.9817 0 
249 1 0.46 70.0 6.56065 18.9917 0 
265 1 0.46 70.0 7.0197 18.9997 0 
15 1 0.46 70.0 7.4756 19.0102 0 
127 1 0.46 70.0 7.92909 19.0224 0 
47 1 0.46 70.0 8.38099 19.0353 0 
220 1 0.46 70.0 8.83184 19.0472 0 
111 1 0.46 70.0 9.06035 18.6707 0 
112 1 0.46 70.0 9.28105 19.0575 0 
90 1 0.46 70.0 9.50705 18.6805 0 
79 1 0.46 70.0 9.72774 19.0642 0 
131 1 0.46 70.0 9.95286 18.6831 0 
212 1 0.46 70.0 10.1743 19.0636 0 
59 1 0.46 70.0 10.3977 18.6779 0 
176 1 0.46 70.0 10.62 19.0563 0 
197 1 0.46 70.0 10.8434 18.6688 0 
101 1 0.46 70.0 11.0676 19.047 0 
245 1 0.46 70.0 11.5169 19.0372 0 
168 1 0.46 70.0 11.9679 19.0276 0 
73 1 0.46 70.0 12.4212 19.0189 0 
126 1 0.46 70.0 12.8771 19.0114 0 
196 1 0.46 70.0 13.336 19.0062 0 
68 1 0.46 70.0 13.8068 19.0004 0 
82 1 0.46 70.0 14.3207 18.9651 0 
303 1 0.46 70.0 14.8025 18.9463 0 
31 1 0.46 70.0 15.2423 18.7049 0 
150 1 0.46 70.0 15.6687 19.0812 0 
95 1 0.46 70.0 4.73492 19.3037 0 
267 1 0.46 70.0 5.31145 19.3689 0 
36 1 0.46 70.0 5.83343 19.3764 0 
282 1 0.46 70.0 6.3231 19.3853 0 
64 1 0.46 70.0 6.78623 19.3911 0 
252 1 0.46 70.0 7.24352 19.3983 0 
207 1 0.46 70.0 7.69841 19.4067 0 
191 1 0.46 70.0 8.15148 19.4157 0 
218 1 0.46 70.0 8.60318 19.4247 0 
217 1 0.46 70.0 9.0533 19.433 0 
88 1 0.46 70.0 9.50126 19.4411 0 
275 1 0.46 70.0 9.94956 19.444 0 
178 1 0.46 70.0 10.3974 19.4407 0 
234 1 0.46 70.0 10.8441 19.433 0 
128 1 0.46 70.0 11.2928 19.4257 0 
182 1 0.46 70.0 11.7434 19.4185 0 
166 1 0.46 70.0 12.1958 19.4117 0 
135 1 0.46 70.0 12.6506 19.4056 0 
91 1 0.46 70.0 13.1079 19.4004 0 
200 1 0.46 70.0 13.5733 19.3955 0 
41 1 0.46 70.0 14.064 19.3804 0 
193 1 0.46 70.0 14.5726 19.3776 0 
227 1 0.46 70.0 15.1378 19.2991 0 
192 1 0.46 70.0 4.37858 19.6997 0 
146 1 0.46 70.0 5.00968 19.7605 0 
18 1 0.46 70.0 5.57434 19.7748 0 
257 1 0.46 70.0 6.07969 19.7782 0 
214 1 0.46 70.0 6.55267 19.7836 0 
155 1 0.46 70.0 7.01172 19.7884 0 
138 1 0.46 70.0 7.46797 19.7935 0 
30 1 0.46 70.0 7.92214 19.7989 0 
13 1 0.46 70.0 8.37475 19.8044 0 
110 1 0.46 70.0 8.82592 19.8098 0 
160 1 0.46 70.0 9.27558 19.815 0 
274 1 0.46 70.0 9.72393 19.8197 0 
263 1 0.46 70.0 10.1732 19.8197 0 
58 1 0.46 70.0 10.6207 19.8151 0 
23 1 0.46 70.0 11.0691 19.8104 0 
171 1 0.46 70.0 11.519 19.8058 0 
66 1 0.46 70.0 11.9707 19.8013 0 
300 1 0.46 70.0 12.4246 19.7971 0 
188 1 0.46 70.0 12.8811 19.7933 0 
195 1 0.46 70.0 13.3409 19.7889 0 
56 1 0.46 70.0 13.8174 19.7814 0 
201 1 0.46 70.0 14.3095 19.7767 0 
238 1 0.46 70.0 14.8485 19.7677 0 
209 1 0.46 70.0 15.3979 19.7289 0 
21 1 0.46 70.0 15.9511 19.6057 0 
