# LAMMPS data file for rigid bodies

303 atoms

1 atom types

0.0 	 20.0 	 xlo xhi 
0.0 	 20.0 	 ylo yhi 
-1.0 	 1.0 	 zlo zhi 

Atoms

81 1 0.46 70.0 7.84923 13.5942 0 
267 1 0.46 70.0 8.80797 13.6529 0 
60 1 0.46 70.0 9.38001 13.4321 0 
219 1 0.46 70.0 10.0714 13.5839 0 
24 1 0.46 70.0 10.62 13.3788 0 
88 1 0.46 70.0 11.4267 13.5302 0 
101 1 0.46 70.0 7.74613 14.1774 0 
303 1 0.46 70.0 8.31081 13.9492 0 
237 1 0.46 70.0 9.16453 14.0947 0 
49 1 0.46 70.0 9.6524 13.9262 0 
64 1 0.46 70.0 10.4582 14.0253 0 
151 1 0.46 70.0 10.9541 13.8456 0 
71 1 0.46 70.0 11.3709 14.187 0 
127 1 0.46 70.0 11.8864 13.9198 0 
261 1 0.46 70.0 6.62276 14.6067 0 
277 1 0.46 70.0 7.18675 14.3386 0 
7 1 0.46 70.0 8.20716 14.5097 0 
57 1 0.46 70.0 8.70092 14.3154 0 
276 1 0.46 70.0 9.09836 14.6521 0 
188 1 0.46 70.0 9.55338 14.4704 0 
5 1 0.46 70.0 10.0243 14.2826 0 
300 1 0.46 70.0 10.4118 14.6043 0 
223 1 0.46 70.0 10.8672 14.3956 0 
154 1 0.46 70.0 11.7749 14.5175 0 
93 1 0.46 70.0 12.3252 14.2696 0 
47 1 0.46 70.0 13.0484 14.3724 0 
247 1 0.46 70.0 7.21311 14.9095 0 
80 1 0.46 70.0 7.71036 14.7201 0 
103 1 0.46 70.0 8.17128 15.0245 0 
211 1 0.46 70.0 8.6348 14.8371 0 
129 1 0.46 70.0 9.48942 14.9781 0 
89 1 0.46 70.0 9.94708 14.7992 0 
240 1 0.46 70.0 10.3298 15.107 0 
20 1 0.46 70.0 10.7901 14.9216 0 
123 1 0.46 70.0 11.2627 14.7238 0 
2 1 0.46 70.0 11.6272 15.0562 0 
84 1 0.46 70.0 12.1147 14.887 0 
209 1 0.46 70.0 12.6113 14.7222 0 
273 1 0.46 70.0 13.0101 15.0662 0 
207 1 0.46 70.0 13.5186 14.8183 0 
15 1 0.46 70.0 5.63124 15.4792 0 
50 1 0.46 70.0 6.15831 15.1499 0 
65 1 0.46 70.0 6.72705 15.1607 0 
94 1 0.46 70.0 7.26293 15.4295 0 
230 1 0.46 70.0 7.71389 15.2308 0 
112 1 0.46 70.0 8.13979 15.5163 0 
34 1 0.46 70.0 8.58844 15.3288 0 
16 1 0.46 70.0 9.03831 15.1507 0 
52 1 0.46 70.0 9.42442 15.4546 0 
130 1 0.46 70.0 9.87422 15.2846 0 
92 1 0.46 70.0 10.6961 15.4099 0 
175 1 0.46 70.0 11.1559 15.2351 0 
203 1 0.46 70.0 11.5169 15.5487 0 
244 1 0.46 70.0 11.9923 15.3918 0 
250 1 0.46 70.0 12.4884 15.2427 0 
26 1 0.46 70.0 13.3671 15.4589 0 
163 1 0.46 70.0 13.8859 15.2901 0 
160 1 0.46 70.0 14.502 15.2675 0 
13 1 0.46 70.0 5.86112 15.9871 0 
124 1 0.46 70.0 6.31664 15.7105 0 
297 1 0.46 70.0 6.81888 15.6552 0 
208 1 0.46 70.0 7.25328 15.9376 0 
69 1 0.46 70.0 7.69417 15.7301 0 
77 1 0.46 70.0 8.10404 15.9858 0 
100 1 0.46 70.0 8.54571 15.7988 0 
115 1 0.46 70.0 8.98501 15.6244 0 
158 1 0.46 70.0 9.36493 15.9118 0 
283 1 0.46 70.0 9.80103 15.7463 0 
99 1 0.46 70.0 10.2467 15.5814 0 
255 1 0.46 70.0 10.6071 15.8723 0 
259 1 0.46 70.0 11.0557 15.7116 0 
231 1 0.46 70.0 11.8765 15.8634 0 
174 1 0.46 70.0 12.3594 15.7245 0 
75 1 0.46 70.0 12.8584 15.591 0 
25 1 0.46 70.0 13.2133 15.9729 0 
63 1 0.46 70.0 13.7179 15.87 0 
246 1 0.46 70.0 14.2457 15.7748 0 
140 1 0.46 70.0 5.32507 16.1644 0 
67 1 0.46 70.0 6.31507 16.2694 0 
166 1 0.46 70.0 6.78712 16.133 0 
153 1 0.46 70.0 7.20636 16.416 0 
96 1 0.46 70.0 7.65815 16.215 0 
156 1 0.46 70.0 8.05812 16.4415 0 
197 1 0.46 70.0 8.49706 16.2551 0 
70 1 0.46 70.0 8.93134 16.0809 0 
91 1 0.46 70.0 9.29349 16.3641 0 
278 1 0.46 70.0 9.72407 16.1984 0 
186 1 0.46 70.0 10.1615 16.0337 0 
141 1 0.46 70.0 10.5181 16.3219 0 
142 1 0.46 70.0 10.9605 16.1651 0 
238 1 0.46 70.0 11.4114 16.0113 0 
85 1 0.46 70.0 11.767 16.3119 0 
29 1 0.46 70.0 12.2374 16.1788 0 
284 1 0.46 70.0 12.7217 16.0682 0 
296 1 0.46 70.0 13.0739 16.4441 0 
226 1 0.46 70.0 13.5695 16.3717 0 
179 1 0.46 70.0 14.0917 16.2903 0 
173 1 0.46 70.0 14.6897 16.1273 0 
1 1 0.46 70.0 4.8119 16.5093 0 
11 1 0.46 70.0 5.33199 16.7782 0 
216 1 0.46 70.0 5.82005 16.5165 0 
133 1 0.46 70.0 6.28029 16.7708 0 
198 1 0.46 70.0 6.74811 16.6072 0 
233 1 0.46 70.0 7.15816 16.8843 0 
201 1 0.46 70.0 7.59723 16.6818 0 
55 1 0.46 70.0 8.43347 16.7072 0 
224 1 0.46 70.0 8.8634 16.5332 0 
121 1 0.46 70.0 9.22425 16.8138 0 
285 1 0.46 70.0 9.65191 16.648 0 
78 1 0.46 70.0 10.0823 16.4836 0 
152 1 0.46 70.0 10.438 16.7697 0 
19 1 0.46 70.0 10.8708 16.6127 0 
302 1 0.46 70.0 11.313 16.4593 0 
76 1 0.46 70.0 11.6635 16.7568 0 
155 1 0.46 70.0 12.1198 16.6215 0 
294 1 0.46 70.0 12.5914 16.5149 0 
204 1 0.46 70.0 12.934 16.8881 0 
205 1 0.46 70.0 13.4158 16.8396 0 
168 1 0.46 70.0 13.9209 16.7747 0 
161 1 0.46 70.0 14.4689 16.6735 0 
21 1 0.46 70.0 15.0712 16.5762 0 
217 1 0.46 70.0 4.80973 17.115 0 
206 1 0.46 70.0 5.31921 17.3295 0 
256 1 0.46 70.0 5.80496 17.0347 0 
95 1 0.46 70.0 6.25835 17.2477 0 
44 1 0.46 70.0 6.71201 17.0734 0 
196 1 0.46 70.0 7.53815 17.1482 0 
258 1 0.46 70.0 8.00125 16.8918 0 
193 1 0.46 70.0 8.37315 17.1575 0 
27 1 0.46 70.0 8.79789 16.9834 0 
271 1 0.46 70.0 9.15713 17.2613 0 
12 1 0.46 70.0 9.58129 17.095 0 
122 1 0.46 70.0 10.0083 16.931 0 
107 1 0.46 70.0 10.3608 17.2152 0 
181 1 0.46 70.0 10.7895 17.0579 0 
74 1 0.46 70.0 11.2227 16.9051 0 
182 1 0.46 70.0 11.5726 17.2009 0 
104 1 0.46 70.0 12.0135 17.0633 0 
291 1 0.46 70.0 12.4679 16.955 0 
66 1 0.46 70.0 12.8164 17.3301 0 
257 1 0.46 70.0 13.2763 17.2884 0 
239 1 0.46 70.0 13.7601 17.2374 0 
235 1 0.46 70.0 14.2768 17.1668 0 
298 1 0.46 70.0 14.8294 17.099 0 
136 1 0.46 70.0 15.4719 17.0593 0 
120 1 0.46 70.0 4.31787 17.5011 0 
150 1 0.46 70.0 4.84573 17.7065 0 
229 1 0.46 70.0 5.78738 17.5334 0 
114 1 0.46 70.0 6.23495 17.7065 0 
170 1 0.46 70.0 6.67953 17.5358 0 
61 1 0.46 70.0 7.11035 17.3472 0 
192 1 0.46 70.0 7.47766 17.6208 0 
22 1 0.46 70.0 7.94813 17.338 0 
263 1 0.46 70.0 8.31557 17.6061 0 
68 1 0.46 70.0 8.73516 17.4322 0 
79 1 0.46 70.0 9.09081 17.7072 0 
106 1 0.46 70.0 9.51133 17.5399 0 
87 1 0.46 70.0 9.93524 17.3759 0 
126 1 0.46 70.0 10.286 17.6587 0 
234 1 0.46 70.0 10.7088 17.5009 0 
73 1 0.46 70.0 11.1378 17.3482 0 
108 1 0.46 70.0 11.4814 17.6413 0 
110 1 0.46 70.0 11.9181 17.5037 0 
183 1 0.46 70.0 12.363 17.3958 0 
90 1 0.46 70.0 12.711 17.7721 0 
227 1 0.46 70.0 13.1656 17.7339 0 
281 1 0.46 70.0 13.6235 17.6896 0 
249 1 0.46 70.0 14.1093 17.6345 0 
172 1 0.46 70.0 14.6303 17.5876 0 
4 1 0.46 70.0 15.1946 17.5491 0 
280 1 0.46 70.0 4.17412 18.1238 0 
279 1 0.46 70.0 5.32939 17.8605 0 
125 1 0.46 70.0 5.77787 18.0229 0 
147 1 0.46 70.0 6.21483 18.1624 0 
35 1 0.46 70.0 6.63959 17.9954 0 
282 1 0.46 70.0 7.06058 17.8134 0 
97 1 0.46 70.0 7.40949 18.1048 0 
18 1 0.46 70.0 7.89528 17.7796 0 
117 1 0.46 70.0 7.84116 18.2137 0 
274 1 0.46 70.0 8.25846 18.054 0 
36 1 0.46 70.0 8.67309 17.8808 0 
199 1 0.46 70.0 9.02423 18.1521 0 
299 1 0.46 70.0 9.44143 17.9827 0 
138 1 0.46 70.0 9.86309 17.8174 0 
200 1 0.46 70.0 10.2126 18.0982 0 
289 1 0.46 70.0 10.6341 17.944 0 
221 1 0.46 70.0 11.0516 17.7899 0 
260 1 0.46 70.0 11.3856 18.0792 0 
157 1 0.46 70.0 11.8199 17.9392 0 
268 1 0.46 70.0 12.2612 17.8335 0 
266 1 0.46 70.0 12.5844 18.2068 0 
187 1 0.46 70.0 13.0349 18.1726 0 
171 1 0.46 70.0 13.4899 18.1348 0 
190 1 0.46 70.0 13.9529 18.091 0 
134 1 0.46 70.0 14.4455 18.0499 0 
169 1 0.46 70.0 14.9926 18.0317 0 
210 1 0.46 70.0 15.6377 17.9571 0 
243 1 0.46 70.0 4.72969 18.2436 0 
290 1 0.46 70.0 5.22682 18.3581 0 
135 1 0.46 70.0 5.6834 18.486 0 
236 1 0.46 70.0 6.12546 18.6044 0 
132 1 0.46 70.0 6.56977 18.4886 0 
116 1 0.46 70.0 6.98213 18.296 0 
213 1 0.46 70.0 7.33787 18.5641 0 
184 1 0.46 70.0 7.77594 18.6366 0 
272 1 0.46 70.0 8.19742 18.504 0 
222 1 0.46 70.0 8.60914 18.3315 0 
177 1 0.46 70.0 8.95876 18.5945 0 
232 1 0.46 70.0 9.37263 18.4239 0 
301 1 0.46 70.0 9.79135 18.2541 0 
119 1 0.46 70.0 10.1376 18.5329 0 
144 1 0.46 70.0 10.5617 18.3786 0 
3 1 0.46 70.0 10.9815 18.2392 0 
228 1 0.46 70.0 11.3371 18.5908 0 
148 1 0.46 70.0 11.7011 18.3651 0 
82 1 0.46 70.0 12.1389 18.2635 0 
269 1 0.46 70.0 12.4141 18.6267 0 
45 1 0.46 70.0 12.8627 18.5974 0 
270 1 0.46 70.0 13.3159 18.5671 0 
288 1 0.46 70.0 13.7733 18.536 0 
6 1 0.46 70.0 14.2463 18.5037 0 
218 1 0.46 70.0 14.7523 18.4729 0 
113 1 0.46 70.0 15.3636 18.4609 0 
194 1 0.46 70.0 4.347 18.7039 0 
59 1 0.46 70.0 4.9005 18.7847 0 
98 1 0.46 70.0 5.39602 18.883 0 
293 1 0.46 70.0 5.86903 18.9798 0 
159 1 0.46 70.0 6.40294 18.9627 0 
225 1 0.46 70.0 6.84632 18.8515 0 
131 1 0.46 70.0 7.26291 19.0066 0 
118 1 0.46 70.0 7.70151 19.0486 0 
292 1 0.46 70.0 8.13626 18.9579 0 
102 1 0.46 70.0 8.54521 18.7868 0 
111 1 0.46 70.0 8.90212 19.0303 0 
248 1 0.46 70.0 9.30623 18.8677 0 
72 1 0.46 70.0 9.72009 18.6852 0 
245 1 0.46 70.0 9.65416 19.1082 0 
31 1 0.46 70.0 10.0585 18.9692 0 
275 1 0.46 70.0 10.4829 18.8008 0 
242 1 0.46 70.0 10.908 18.674 0 
23 1 0.46 70.0 10.8174 19.0984 0 
195 1 0.46 70.0 11.2536 19.0269 0 
162 1 0.46 70.0 11.973 18.6786 0 
48 1 0.46 70.0 11.6964 19.0059 0 
105 1 0.46 70.0 12.2069 19.0339 0 
191 1 0.46 70.0 12.6568 19.0078 0 
62 1 0.46 70.0 13.1098 18.987 0 
264 1 0.46 70.0 13.5665 18.9651 0 
51 1 0.46 70.0 14.0316 18.9448 0 
145 1 0.46 70.0 14.5212 18.9224 0 
241 1 0.46 70.0 15.0514 18.8847 0 
10 1 0.46 70.0 15.7711 18.8952 0 
146 1 0.46 70.0 3.9878 19.1892 0 
143 1 0.46 70.0 4.59721 19.2334 0 
43 1 0.46 70.0 5.12115 19.3005 0 
265 1 0.46 70.0 5.61603 19.3639 0 
139 1 0.46 70.0 6.11667 19.3657 0 
149 1 0.46 70.0 6.5744 19.3794 0 
33 1 0.46 70.0 7.02088 19.3851 0 
253 1 0.46 70.0 7.47206 19.4148 0 
42 1 0.46 70.0 7.94695 19.4078 0 
128 1 0.46 70.0 8.38785 19.3287 0 
86 1 0.46 70.0 8.80674 19.4335 0 
165 1 0.46 70.0 9.23913 19.3334 0 
46 1 0.46 70.0 9.63883 19.5008 0 
185 1 0.46 70.0 10.0614 19.4402 0 
32 1 0.46 70.0 10.3986 19.2099 0 
178 1 0.46 70.0 10.6493 19.5147 0 
252 1 0.46 70.0 11.0845 19.4415 0 
164 1 0.46 70.0 11.5228 19.4101 0 
14 1 0.46 70.0 11.9705 19.4034 0 
295 1 0.46 70.0 12.4357 19.4087 0 
40 1 0.46 70.0 12.8902 19.3948 0 
180 1 0.46 70.0 13.3465 19.3811 0 
8 1 0.46 70.0 13.8061 19.3681 0 
215 1 0.46 70.0 14.2875 19.3574 0 
56 1 0.46 70.0 14.7998 19.3395 0 
212 1 0.46 70.0 15.3614 19.2926 0 
28 1 0.46 70.0 4.29081 19.6985 0 
53 1 0.46 70.0 4.85007 19.7387 0 
167 1 0.46 70.0 5.36715 19.7713 0 
9 1 0.46 70.0 5.86845 19.7749 0 
37 1 0.46 70.0 6.33518 19.7788 0 
251 1 0.46 70.0 6.7923 19.7828 0 
30 1 0.46 70.0 7.2448 19.7948 0 
176 1 0.46 70.0 7.70268 19.795 0 
109 1 0.46 70.0 8.14931 19.7948 0 
58 1 0.46 70.0 8.57767 19.7997 0 
189 1 0.46 70.0 9.02013 19.8009 0 
286 1 0.46 70.0 9.43601 19.8386 0 
287 1 0.46 70.0 9.89421 19.8383 0 
254 1 0.46 70.0 10.3367 19.8056 0 
202 1 0.46 70.0 10.8825 19.8403 0 
220 1 0.46 70.0 11.3228 19.8091 0 
54 1 0.46 70.0 11.7617 19.7969 0 
214 1 0.46 70.0 12.2086 19.7937 0 
262 1 0.46 70.0 12.6654 19.7932 0 
17 1 0.46 70.0 13.1217 19.7853 0 
39 1 0.46 70.0 13.5792 19.7791 0 
137 1 0.46 70.0 14.0478 19.7757 0 
41 1 0.46 70.0 14.5479 19.7719 0 
83 1 0.46 70.0 15.0972 19.7535 0 
38 1 0.46 70.0 15.7475 19.6696 0 
