# LAMMPS data file for rigid bodies

303 atoms

1 atom types

0.0 	 20.0 	 xlo xhi 
0.0 	 20.0 	 ylo yhi 
-1.0 	 1.0 	 zlo zhi 

Atoms

109 1 0.46 70.0 9.38004 13.1969 0 
16 1 0.46 70.0 10.0715 13.2156 0 
193 1 0.46 70.0 8.41613 13.5313 0 
226 1 0.46 70.0 9.01593 13.6489 0 
177 1 0.46 70.0 9.6462 13.7235 0 
156 1 0.46 70.0 10.2459 13.744 0 
130 1 0.46 70.0 10.7979 13.5631 0 
108 1 0.46 70.0 11.4182 13.5151 0 
112 1 0.46 70.0 7.31793 14.1973 0 
180 1 0.46 70.0 8.00712 13.9837 0 
265 1 0.46 70.0 8.61567 14.085 0 
169 1 0.46 70.0 9.16632 14.1601 0 
196 1 0.46 70.0 10.6798 14.1314 0 
278 1 0.46 70.0 11.2196 14.0565 0 
239 1 0.46 70.0 11.8529 13.9454 0 
178 1 0.46 70.0 6.92372 14.6544 0 
139 1 0.46 70.0 7.79753 14.4916 0 
103 1 0.46 70.0 8.33339 14.5267 0 
211 1 0.46 70.0 8.86207 14.5848 0 
269 1 0.46 70.0 9.67055 14.237 0 
244 1 0.46 70.0 9.38 14.6462 0 
175 1 0.46 70.0 10.1667 14.245 0 
105 1 0.46 70.0 10.4523 14.6444 0 
202 1 0.46 70.0 10.9495 14.5779 0 
203 1 0.46 70.0 11.456 14.5222 0 
2 1 0.46 70.0 11.9666 14.4742 0 
84 1 0.46 70.0 12.4898 14.3173 0 
238 1 0.46 70.0 13.0889 14.3669 0 
91 1 0.46 70.0 6.30555 14.967 0 
56 1 0.46 70.0 7.46277 14.8886 0 
158 1 0.46 70.0 8.04633 14.9592 0 
171 1 0.46 70.0 8.5712 14.9981 0 
159 1 0.46 70.0 9.08781 15.0398 0 
28 1 0.46 70.0 9.61991 15.063 0 
216 1 0.46 70.0 9.91414 14.6891 0 
257 1 0.46 70.0 10.2032 15.0652 0 
204 1 0.46 70.0 10.7239 15.0476 0 
120 1 0.46 70.0 11.2233 15.0032 0 
41 1 0.46 70.0 11.7265 14.9635 0 
32 1 0.46 70.0 12.2511 14.9045 0 
263 1 0.46 70.0 12.787 14.8723 0 
111 1 0.46 70.0 13.402 14.8883 0 
160 1 0.46 70.0 5.87254 15.4367 0 
9 1 0.46 70.0 6.82616 15.2017 0 
300 1 0.46 70.0 7.3091 15.3619 0 
231 1 0.46 70.0 7.80323 15.3783 0 
285 1 0.46 70.0 8.294 15.415 0 
293 1 0.46 70.0 8.76707 15.4451 0 
254 1 0.46 70.0 9.22514 15.4784 0 
301 1 0.46 70.0 9.67816 15.5128 0 
162 1 0.46 70.0 10.1296 15.5135 0 
97 1 0.46 70.0 10.5837 15.4854 0 
245 1 0.46 70.0 11.041 15.4542 0 
166 1 0.46 70.0 11.5064 15.4221 0 
279 1 0.46 70.0 11.9895 15.3835 0 
253 1 0.46 70.0 12.4891 15.3502 0 
243 1 0.46 70.0 13.0174 15.3674 0 
66 1 0.46 70.0 13.5453 15.4261 0 
271 1 0.46 70.0 14.0722 15.2369 0 
182 1 0.46 70.0 5.40372 15.9172 0 
92 1 0.46 70.0 6.44274 15.5874 0 
225 1 0.46 70.0 6.98978 15.7375 0 
280 1 0.46 70.0 7.55323 15.7977 0 
200 1 0.46 70.0 8.05211 15.8278 0 
7 1 0.46 70.0 8.5284 15.8575 0 
252 1 0.46 70.0 8.98771 15.8824 0 
35 1 0.46 70.0 9.44457 15.9066 0 
126 1 0.46 70.0 9.9024 15.9129 0 
286 1 0.46 70.0 10.3594 15.9101 0 
240 1 0.46 70.0 10.8153 15.8888 0 
125 1 0.46 70.0 11.2733 15.8655 0 
208 1 0.46 70.0 11.7367 15.8376 0 
151 1 0.46 70.0 12.2124 15.8068 0 
149 1 0.46 70.0 12.7076 15.7866 0 
121 1 0.46 70.0 13.2465 15.8706 0 
75 1 0.46 70.0 13.7923 15.8955 0 
131 1 0.46 70.0 14.3469 15.7891 0 
132 1 0.46 70.0 5.97279 16.008 0 
47 1 0.46 70.0 6.47748 16.1012 0 
8 1 0.46 70.0 6.9421 16.2 0 
298 1 0.46 70.0 7.39972 16.2291 0 
101 1 0.46 70.0 7.85819 16.2443 0 
133 1 0.46 70.0 8.31545 16.2641 0 
222 1 0.46 70.0 8.77087 16.2851 0 
25 1 0.46 70.0 9.22418 16.3038 0 
281 1 0.46 70.0 9.67674 16.3087 0 
53 1 0.46 70.0 10.1303 16.309 0 
135 1 0.46 70.0 10.5836 16.3061 0 
227 1 0.46 70.0 11.0367 16.289 0 
167 1 0.46 70.0 11.4922 16.2688 0 
277 1 0.46 70.0 11.9504 16.2464 0 
290 1 0.46 70.0 12.4166 16.2245 0 
272 1 0.46 70.0 12.9003 16.2125 0 
15 1 0.46 70.0 13.4857 16.3431 0 
36 1 0.46 70.0 14.015 16.3678 0 
19 1 0.46 70.0 14.5691 16.3121 0 
100 1 0.46 70.0 5.07611 16.4531 0 
194 1 0.46 70.0 5.66557 16.4772 0 
261 1 0.46 70.0 6.19082 16.535 0 
168 1 0.46 70.0 6.68943 16.5977 0 
17 1 0.46 70.0 7.1771 16.6362 0 
107 1 0.46 70.0 7.64178 16.6504 0 
242 1 0.46 70.0 8.09835 16.6672 0 
113 1 0.46 70.0 8.55176 16.6838 0 
197 1 0.46 70.0 9.00268 16.6977 0 
161 1 0.46 70.0 9.45257 16.7033 0 
274 1 0.46 70.0 9.90307 16.7057 0 
24 1 0.46 70.0 10.3534 16.7046 0 
287 1 0.46 70.0 10.8033 16.7007 0 
164 1 0.46 70.0 11.2542 16.6876 0 
155 1 0.46 70.0 11.7076 16.6708 0 
224 1 0.46 70.0 12.1639 16.652 0 
292 1 0.46 70.0 12.6235 16.6351 0 
72 1 0.46 70.0 13.1043 16.6219 0 
81 1 0.46 70.0 13.7198 16.8194 0 
258 1 0.46 70.0 14.2338 16.8386 0 
52 1 0.46 70.0 14.76 16.8351 0 
189 1 0.46 70.0 15.2047 16.4902 0 
102 1 0.46 70.0 4.77094 16.9897 0 
129 1 0.46 70.0 5.39252 16.9529 0 
20 1 0.46 70.0 5.92948 16.9758 0 
134 1 0.46 70.0 6.44928 16.9968 0 
299 1 0.46 70.0 6.94298 17.0304 0 
122 1 0.46 70.0 7.41677 17.0489 0 
73 1 0.46 70.0 7.87456 17.064 0 
104 1 0.46 70.0 8.32871 17.0777 0 
192 1 0.46 70.0 8.77984 17.0888 0 
46 1 0.46 70.0 9.22972 17.0961 0 
65 1 0.46 70.0 9.67813 17.1003 0 
234 1 0.46 70.0 10.1266 17.1011 0 
283 1 0.46 70.0 10.575 17.0985 0 
96 1 0.46 70.0 11.0231 17.0928 0 
228 1 0.46 70.0 11.4724 17.0828 0 
198 1 0.46 70.0 11.9245 17.0691 0 
191 1 0.46 70.0 12.3796 17.0543 0 
302 1 0.46 70.0 12.8382 17.0403 0 
77 1 0.46 70.0 13.3082 17.0286 0 
62 1 0.46 70.0 13.989 17.2838 0 
141 1 0.46 70.0 14.5282 17.3038 0 
232 1 0.46 70.0 15.1566 17.2199 0 
124 1 0.46 70.0 4.43801 17.537 0 
146 1 0.46 70.0 5.1331 17.4271 0 
13 1 0.46 70.0 5.6735 17.4249 0 
90 1 0.46 70.0 6.21772 17.397 0 
18 1 0.46 70.0 6.7128 17.4257 0 
128 1 0.46 70.0 7.1885 17.4429 0 
282 1 0.46 70.0 7.64758 17.4564 0 
259 1 0.46 70.0 8.10279 17.4674 0 
38 1 0.46 70.0 8.55526 17.4775 0 
136 1 0.46 70.0 9.00583 17.4861 0 
220 1 0.46 70.0 9.45398 17.4923 0 
256 1 0.46 70.0 9.90159 17.495 0 
27 1 0.46 70.0 10.3489 17.4942 0 
118 1 0.46 70.0 10.796 17.4897 0 
95 1 0.46 70.0 11.2449 17.4823 0 
43 1 0.46 70.0 11.6951 17.473 0 
187 1 0.46 70.0 12.1474 17.4621 0 
61 1 0.46 70.0 12.6029 17.4505 0 
247 1 0.46 70.0 13.0624 17.44 0 
172 1 0.46 70.0 13.5429 17.4177 0 
4 1 0.46 70.0 14.2539 17.7184 0 
51 1 0.46 70.0 14.8548 17.7186 0 
34 1 0.46 70.0 15.4662 17.7019 0 
127 1 0.46 70.0 4.87156 17.8907 0 
147 1 0.46 70.0 5.41233 17.8907 0 
213 1 0.46 70.0 5.77294 18.1997 0 
11 1 0.46 70.0 5.99198 17.7973 0 
195 1 0.46 70.0 6.25868 18.2202 0 
266 1 0.46 70.0 6.48473 17.822 0 
289 1 0.46 70.0 6.96052 17.836 0 
69 1 0.46 70.0 7.42007 17.846 0 
21 1 0.46 70.0 7.87649 17.8552 0 
210 1 0.46 70.0 8.33041 17.8649 0 
67 1 0.46 70.0 8.7819 17.8736 0 
94 1 0.46 70.0 9.23102 17.881 0 
185 1 0.46 70.0 9.67782 17.8861 0 
79 1 0.46 70.0 10.1245 17.8872 0 
212 1 0.46 70.0 10.5712 17.8844 0 
49 1 0.46 70.0 11.0184 17.878 0 
223 1 0.46 70.0 11.4679 17.8701 0 
163 1 0.46 70.0 11.9199 17.8609 0 
241 1 0.46 70.0 12.3742 17.8512 0 
5 1 0.46 70.0 12.8314 17.8421 0 
267 1 0.46 70.0 13.2967 17.8325 0 
186 1 0.46 70.0 13.7815 17.8069 0 
142 1 0.46 70.0 14.0269 18.1941 0 
284 1 0.46 70.0 14.5284 18.118 0 
296 1 0.46 70.0 15.1531 18.1848 0 
294 1 0.46 70.0 15.8002 18.2136 0 
123 1 0.46 70.0 4.44399 18.2465 0 
249 1 0.46 70.0 5.09442 18.3541 0 
40 1 0.46 70.0 5.52236 18.5824 0 
273 1 0.46 70.0 6.02295 18.6148 0 
145 1 0.46 70.0 6.50026 18.6213 0 
48 1 0.46 70.0 6.73191 18.2288 0 
295 1 0.46 70.0 6.96504 18.624 0 
152 1 0.46 70.0 7.1927 18.2349 0 
206 1 0.46 70.0 7.42348 18.6298 0 
54 1 0.46 70.0 7.65024 18.2426 0 
117 1 0.46 70.0 7.87933 18.6366 0 
233 1 0.46 70.0 8.10511 18.2509 0 
173 1 0.46 70.0 8.33267 18.6438 0 
76 1 0.46 70.0 8.55753 18.2593 0 
68 1 0.46 70.0 8.78354 18.6511 0 
106 1 0.46 70.0 9.00735 18.267 0 
236 1 0.46 70.0 9.23183 18.6583 0 
55 1 0.46 70.0 9.45427 18.2739 0 
235 1 0.46 70.0 9.67749 18.6643 0 
31 1 0.46 70.0 9.90062 18.2773 0 
150 1 0.46 70.0 10.1233 18.6656 0 
230 1 0.46 70.0 10.3467 18.2764 0 
143 1 0.46 70.0 10.5693 18.6623 0 
60 1 0.46 70.0 10.7928 18.2712 0 
229 1 0.46 70.0 11.0158 18.6555 0 
288 1 0.46 70.0 11.2412 18.2641 0 
85 1 0.46 70.0 11.4653 18.6484 0 
50 1 0.46 70.0 11.6922 18.2561 0 
114 1 0.46 70.0 11.9175 18.6411 0 
221 1 0.46 70.0 12.1456 18.2477 0 
26 1 0.46 70.0 12.3722 18.6338 0 
58 1 0.46 70.0 12.6018 18.2392 0 
291 1 0.46 70.0 12.8297 18.6266 0 
215 1 0.46 70.0 13.0611 18.2317 0 
116 1 0.46 70.0 13.2934 18.6204 0 
275 1 0.46 70.0 13.5339 18.2231 0 
14 1 0.46 70.0 13.7733 18.6127 0 
237 1 0.46 70.0 14.2696 18.584 0 
63 1 0.46 70.0 14.7754 18.5289 0 
174 1 0.46 70.0 4.1009 18.7514 0 
154 1 0.46 70.0 4.73244 18.7503 0 
23 1 0.46 70.0 5.22283 18.9327 0 
22 1 0.46 70.0 5.76321 18.9981 0 
137 1 0.46 70.0 6.26067 19.0111 0 
6 1 0.46 70.0 6.73574 19.0136 0 
246 1 0.46 70.0 7.19567 19.0172 0 
110 1 0.46 70.0 7.6526 19.0223 0 
179 1 0.46 70.0 8.10688 19.0281 0 
74 1 0.46 70.0 8.55858 19.0341 0 
64 1 0.46 70.0 9.0077 19.0407 0 
184 1 0.46 70.0 9.4538 19.0478 0 
248 1 0.46 70.0 9.89972 19.0516 0 
153 1 0.46 70.0 10.3457 19.0505 0 
199 1 0.46 70.0 10.7913 19.0446 0 
119 1 0.46 70.0 11.2396 19.0381 0 
115 1 0.46 70.0 11.6904 19.0319 0 
88 1 0.46 70.0 12.1439 19.0258 0 
214 1 0.46 70.0 12.6 19.0198 0 
218 1 0.46 70.0 13.059 19.0136 0 
262 1 0.46 70.0 13.5281 19.0091 0 
201 1 0.46 70.0 14.0147 19.0023 0 
98 1 0.46 70.0 14.5173 18.9814 0 
78 1 0.46 70.0 15.03 18.9364 0 
268 1 0.46 70.0 15.4667 18.6691 0 
42 1 0.46 70.0 15.9146 19.0679 0 
37 1 0.46 70.0 4.44047 19.2151 0 
140 1 0.46 70.0 4.96076 19.3314 0 
57 1 0.46 70.0 5.49045 19.3708 0 
44 1 0.46 70.0 6.01052 19.3954 0 
217 1 0.46 70.0 6.49974 19.4013 0 
170 1 0.46 70.0 6.96674 19.405 0 
250 1 0.46 70.0 7.42472 19.4086 0 
207 1 0.46 70.0 7.88002 19.4128 0 
264 1 0.46 70.0 8.3327 19.4173 0 
59 1 0.46 70.0 8.78283 19.4222 0 
99 1 0.46 70.0 9.23063 19.4281 0 
10 1 0.46 70.0 9.67597 19.4341 0 
80 1 0.46 70.0 10.1226 19.4351 0 
255 1 0.46 70.0 10.5693 19.4319 0 
176 1 0.46 70.0 11.0156 19.4254 0 
93 1 0.46 70.0 11.4649 19.4203 0 
70 1 0.46 70.0 11.9169 19.4155 0 
33 1 0.46 70.0 12.3716 19.4108 0 
45 1 0.46 70.0 12.8291 19.406 0 
12 1 0.46 70.0 13.291 19.401 0 
3 1 0.46 70.0 13.768 19.3965 0 
276 1 0.46 70.0 14.2661 19.3895 0 
87 1 0.46 70.0 14.7983 19.3794 0 
209 1 0.46 70.0 15.3763 19.2997 0 
1 1 0.46 70.0 4.07595 19.6427 0 
297 1 0.46 70.0 4.66918 19.7431 0 
190 1 0.46 70.0 5.23022 19.7718 0 
188 1 0.46 70.0 5.75463 19.777 0 
148 1 0.46 70.0 6.25418 19.7846 0 
251 1 0.46 70.0 6.73358 19.7916 0 
157 1 0.46 70.0 7.19485 19.7955 0 
219 1 0.46 70.0 7.65169 19.7982 0 
82 1 0.46 70.0 8.10554 19.8013 0 
303 1 0.46 70.0 8.55655 19.8045 0 
260 1 0.46 70.0 9.0048 19.8081 0 
205 1 0.46 70.0 9.45054 19.8137 0 
270 1 0.46 70.0 9.89818 19.8155 0 
29 1 0.46 70.0 10.346 19.8149 0 
89 1 0.46 70.0 10.7924 19.8104 0 
183 1 0.46 70.0 11.2406 19.8065 0 
165 1 0.46 70.0 11.6912 19.8031 0 
30 1 0.46 70.0 12.1446 19.7998 0 
181 1 0.46 70.0 12.6009 19.7965 0 
39 1 0.46 70.0 13.0599 19.7928 0 
86 1 0.46 70.0 13.5289 19.7872 0 
144 1 0.46 70.0 14.0154 19.7813 0 
138 1 0.46 70.0 14.5298 19.776 0 
83 1 0.46 70.0 15.1068 19.7614 0 
71 1 0.46 70.0 15.7391 19.6931 0 
