# LAMMPS data file for rigid bodies

303 atoms

1 atom types

0.0 	 20.0 	 xlo xhi 
0.0 	 20.0 	 ylo yhi 
-1.0 	 1.0 	 zlo zhi 

Atoms

108 1 0.46 70.0 8.54771 13.4863 0 
294 1 0.46 70.0 9.10766 13.6486 0 
199 1 0.46 70.0 9.85363 13.4256 0 
137 1 0.46 70.0 10.6178 13.4708 0 
219 1 0.46 70.0 11.174 13.6992 0 
235 1 0.46 70.0 12.0531 13.6679 0 
143 1 0.46 70.0 7.19617 14.0322 0 
290 1 0.46 70.0 8.0743 13.8639 0 
189 1 0.46 70.0 8.634 14.0799 0 
106 1 0.46 70.0 9.55295 13.9381 0 
87 1 0.46 70.0 10.2177 13.8876 0 
109 1 0.46 70.0 10.7352 14.0842 0 
215 1 0.46 70.0 11.6268 14.0387 0 
84 1 0.46 70.0 12.6536 13.9948 0 
226 1 0.46 70.0 6.71423 14.4712 0 
11 1 0.46 70.0 7.26606 14.6572 0 
233 1 0.46 70.0 7.70307 14.2841 0 
43 1 0.46 70.0 8.22096 14.4531 0 
276 1 0.46 70.0 8.70202 14.6414 0 
76 1 0.46 70.0 9.11622 14.2836 0 
42 1 0.46 70.0 9.50625 14.586 0 
9 1 0.46 70.0 9.90132 14.2958 0 
284 1 0.46 70.0 10.3681 14.4612 0 
170 1 0.46 70.0 11.1969 14.3439 0 
20 1 0.46 70.0 11.686 14.5873 0 
280 1 0.46 70.0 12.1462 14.2913 0 
184 1 0.46 70.0 12.6647 14.5841 0 
156 1 0.46 70.0 13.2193 14.3599 0 
141 1 0.46 70.0 6.26872 14.8975 0 
240 1 0.46 70.0 6.8453 15.054 0 
301 1 0.46 70.0 7.79258 14.8123 0 
247 1 0.46 70.0 8.28685 14.9784 0 
124 1 0.46 70.0 9.1256 14.8803 0 
149 1 0.46 70.0 9.56941 15.0907 0 
63 1 0.46 70.0 9.96607 14.7978 0 
114 1 0.46 70.0 10.4139 14.9797 0 
277 1 0.46 70.0 10.8093 14.6688 0 
80 1 0.46 70.0 11.2634 14.8781 0 
113 1 0.46 70.0 11.7223 15.0986 0 
154 1 0.46 70.0 12.1733 14.832 0 
69 1 0.46 70.0 13.174 14.936 0 
228 1 0.46 70.0 13.7821 14.7579 0 
190 1 0.46 70.0 5.83952 15.3298 0 
180 1 0.46 70.0 6.44454 15.4539 0 
253 1 0.46 70.0 7.37187 15.1804 0 
92 1 0.46 70.0 7.87451 15.3021 0 
107 1 0.46 70.0 8.35139 15.4784 0 
49 1 0.46 70.0 8.73809 15.1764 0 
254 1 0.46 70.0 9.18453 15.3761 0 
38 1 0.46 70.0 10.0159 15.2787 0 
198 1 0.46 70.0 10.4553 15.459 0 
177 1 0.46 70.0 10.8548 15.1715 0 
221 1 0.46 70.0 11.2958 15.3707 0 
136 1 0.46 70.0 12.1805 15.3343 0 
57 1 0.46 70.0 12.657 15.1111 0 
74 1 0.46 70.0 13.1273 15.4678 0 
187 1 0.46 70.0 13.6466 15.3037 0 
24 1 0.46 70.0 5.42076 15.7895 0 
270 1 0.46 70.0 6.0628 15.8587 0 
194 1 0.46 70.0 6.60172 15.9646 0 
129 1 0.46 70.0 6.97555 15.5737 0 
4 1 0.46 70.0 7.47394 15.6656 0 
273 1 0.46 70.0 7.95684 15.7642 0 
292 1 0.46 70.0 8.43169 15.9481 0 
6 1 0.46 70.0 8.806 15.6609 0 
44 1 0.46 70.0 9.25156 15.8414 0 
242 1 0.46 70.0 9.62583 15.5637 0 
151 1 0.46 70.0 10.0618 15.7377 0 
70 1 0.46 70.0 10.4891 15.9175 0 
100 1 0.46 70.0 10.8845 15.6443 0 
298 1 0.46 70.0 11.3122 15.8377 0 
296 1 0.46 70.0 11.7365 15.5818 0 
140 1 0.46 70.0 12.1777 15.8111 0 
237 1 0.46 70.0 12.637 15.6029 0 
99 1 0.46 70.0 13.1074 15.9639 0 
299 1 0.46 70.0 13.6114 15.8311 0 
104 1 0.46 70.0 14.1606 15.5691 0 
21 1 0.46 70.0 14.6153 15.9743 0 
203 1 0.46 70.0 4.98624 16.2879 0 
295 1 0.46 70.0 5.70305 16.275 0 
159 1 0.46 70.0 6.2436 16.3616 0 
48 1 0.46 70.0 7.10269 16.0616 0 
251 1 0.46 70.0 7.58105 16.1235 0 
139 1 0.46 70.0 8.04974 16.2115 0 
2 1 0.46 70.0 8.51973 16.3992 0 
33 1 0.46 70.0 8.88344 16.1176 0 
185 1 0.46 70.0 9.31804 16.2952 0 
17 1 0.46 70.0 9.6838 16.0197 0 
236 1 0.46 70.0 10.1079 16.1925 0 
102 1 0.46 70.0 10.5289 16.3724 0 
271 1 0.46 70.0 10.9101 16.1024 0 
167 1 0.46 70.0 11.3311 16.2953 0 
116 1 0.46 70.0 11.7413 16.0422 0 
193 1 0.46 70.0 12.1725 16.2701 0 
59 1 0.46 70.0 12.6252 16.0669 0 
173 1 0.46 70.0 13.0644 16.4368 0 
204 1 0.46 70.0 13.55 16.3369 0 
40 1 0.46 70.0 14.0624 16.1607 0 
94 1 0.46 70.0 15.0794 16.4179 0 
134 1 0.46 70.0 5.36085 16.6979 0 
281 1 0.46 70.0 5.89119 16.7744 0 
197 1 0.46 70.0 6.38836 16.8414 0 
255 1 0.46 70.0 6.7475 16.4473 0 
172 1 0.46 70.0 7.22714 16.5267 0 
39 1 0.46 70.0 7.68757 16.5689 0 
246 1 0.46 70.0 8.13911 16.6539 0 
14 1 0.46 70.0 8.59486 16.8507 0 
53 1 0.46 70.0 8.95417 16.5696 0 
51 1 0.46 70.0 9.37778 16.7483 0 
119 1 0.46 70.0 9.73909 16.4749 0 
117 1 0.46 70.0 10.1575 16.6433 0 
103 1 0.46 70.0 10.573 16.8237 0 
289 1 0.46 70.0 10.9472 16.5567 0 
297 1 0.46 70.0 11.3633 16.7496 0 
25 1 0.46 70.0 11.7532 16.499 0 
54 1 0.46 70.0 12.1757 16.7268 0 
181 1 0.46 70.0 12.602 16.5235 0 
244 1 0.46 70.0 13.5132 16.8217 0 
266 1 0.46 70.0 13.9945 16.6898 0 
82 1 0.46 70.0 14.5081 16.5616 0 
302 1 0.46 70.0 4.9375 17.0504 0 
267 1 0.46 70.0 5.53138 17.1943 0 
285 1 0.46 70.0 6.04891 17.2497 0 
232 1 0.46 70.0 6.52334 17.3074 0 
65 1 0.46 70.0 6.8578 16.9127 0 
163 1 0.46 70.0 7.31166 16.9787 0 
230 1 0.46 70.0 7.76489 17.0159 0 
97 1 0.46 70.0 8.21229 17.0918 0 
241 1 0.46 70.0 8.67945 17.2999 0 
145 1 0.46 70.0 9.02123 17.0185 0 
52 1 0.46 70.0 9.43239 17.2046 0 
29 1 0.46 70.0 9.78964 16.9345 0 
68 1 0.46 70.0 10.2016 17.089 0 
85 1 0.46 70.0 10.612 17.2742 0 
98 1 0.46 70.0 10.9835 17.0072 0 
196 1 0.46 70.0 11.3906 17.2013 0 
168 1 0.46 70.0 11.7758 16.953 0 
260 1 0.46 70.0 12.1881 17.1813 0 
211 1 0.46 70.0 12.5995 16.9775 0 
210 1 0.46 70.0 13.0504 16.896 0 
5 1 0.46 70.0 13.491 17.2886 0 
206 1 0.46 70.0 13.9603 17.1899 0 
303 1 0.46 70.0 14.4572 17.0975 0 
272 1 0.46 70.0 15.0008 16.9972 0 
95 1 0.46 70.0 4.63104 17.5258 0 
81 1 0.46 70.0 5.20737 17.6033 0 
192 1 0.46 70.0 5.75873 17.6582 0 
62 1 0.46 70.0 6.25361 17.711 0 
22 1 0.46 70.0 6.97776 17.3665 0 
223 1 0.46 70.0 6.71803 17.7614 0 
174 1 0.46 70.0 7.42814 17.4217 0 
239 1 0.46 70.0 7.87521 17.4544 0 
132 1 0.46 70.0 8.31241 17.5144 0 
77 1 0.46 70.0 9.08535 17.4711 0 
34 1 0.46 70.0 9.42538 17.7739 0 
10 1 0.46 70.0 9.80231 17.4396 0 
127 1 0.46 70.0 10.2375 17.5231 0 
293 1 0.46 70.0 10.655 17.7269 0 
256 1 0.46 70.0 11.0161 17.455 0 
26 1 0.46 70.0 11.415 17.6547 0 
72 1 0.46 70.0 11.7901 17.4046 0 
213 1 0.46 70.0 12.1716 17.6349 0 
47 1 0.46 70.0 12.5863 17.4289 0 
41 1 0.46 70.0 13.0363 17.353 0 
121 1 0.46 70.0 13.4183 17.7443 0 
111 1 0.46 70.0 13.8712 17.6725 0 
158 1 0.46 70.0 14.3469 17.6073 0 
227 1 0.46 70.0 14.8563 17.5417 0 
268 1 0.46 70.0 15.4282 17.435 0 
291 1 0.46 70.0 4.34506 18.0308 0 
258 1 0.46 70.0 4.92214 18.0638 0 
35 1 0.46 70.0 5.4848 18.0641 0 
243 1 0.46 70.0 5.99561 18.1115 0 
288 1 0.46 70.0 6.47368 18.157 0 
148 1 0.46 70.0 6.93172 18.1951 0 
202 1 0.46 70.0 7.17366 17.8054 0 
249 1 0.46 70.0 7.38766 18.2214 0 
144 1 0.46 70.0 7.62735 17.8368 0 
28 1 0.46 70.0 8.07614 17.8731 0 
55 1 0.46 70.0 8.55223 17.8725 0 
45 1 0.46 70.0 8.99168 17.8915 0 
67 1 0.46 70.0 9.85206 17.8874 0 
96 1 0.46 70.0 10.2848 17.9419 0 
269 1 0.46 70.0 11.0571 17.8986 0 
86 1 0.46 70.0 11.3886 18.2093 0 
115 1 0.46 70.0 11.7945 17.86 0 
248 1 0.46 70.0 12.5292 17.8734 0 
50 1 0.46 70.0 12.9696 17.8045 0 
261 1 0.46 70.0 13.2153 18.1917 0 
250 1 0.46 70.0 13.6721 18.1418 0 
238 1 0.46 70.0 14.1469 18.0862 0 
279 1 0.46 70.0 14.6538 18.0503 0 
131 1 0.46 70.0 15.1871 18.0056 0 
183 1 0.46 70.0 15.7757 17.9847 0 
1 1 0.46 70.0 4.04129 18.558 0 
176 1 0.46 70.0 4.62402 18.5662 0 
16 1 0.46 70.0 5.22921 18.4858 0 
89 1 0.46 70.0 5.74436 18.5145 0 
234 1 0.46 70.0 6.23002 18.5514 0 
265 1 0.46 70.0 6.69304 18.5864 0 
71 1 0.46 70.0 7.15032 18.6077 0 
165 1 0.46 70.0 7.84137 18.2453 0 
23 1 0.46 70.0 7.60571 18.6247 0 
216 1 0.46 70.0 8.06176 18.6374 0 
186 1 0.46 70.0 8.30086 18.2552 0 
101 1 0.46 70.0 8.74937 18.2707 0 
128 1 0.46 70.0 8.51276 18.6502 0 
15 1 0.46 70.0 9.19559 18.2732 0 
262 1 0.46 70.0 8.96119 18.6592 0 
278 1 0.46 70.0 9.4024 18.6663 0 
207 1 0.46 70.0 9.62439 18.2707 0 
75 1 0.46 70.0 10.0605 18.3024 0 
166 1 0.46 70.0 10.5147 18.2965 0 
179 1 0.46 70.0 10.945 18.3009 0 
135 1 0.46 70.0 11.1742 18.6649 0 
188 1 0.46 70.0 11.611 18.6528 0 
73 1 0.46 70.0 11.8303 18.2785 0 
126 1 0.46 70.0 12.0689 18.6456 0 
217 1 0.46 70.0 12.2727 18.2361 0 
205 1 0.46 70.0 12.5201 18.6228 0 
200 1 0.46 70.0 12.762 18.2423 0 
142 1 0.46 70.0 12.994 18.6202 0 
8 1 0.46 70.0 13.4513 18.584 0 
220 1 0.46 70.0 13.92 18.54 0 
79 1 0.46 70.0 14.4164 18.5015 0 
83 1 0.46 70.0 14.964 18.5095 0 
209 1 0.46 70.0 15.5205 18.5176 0 
208 1 0.46 70.0 4.99289 18.9163 0 
252 1 0.46 70.0 5.50345 18.931 0 
178 1 0.46 70.0 5.99006 18.9513 0 
123 1 0.46 70.0 6.45679 18.9794 0 
275 1 0.46 70.0 6.91518 18.9966 0 
58 1 0.46 70.0 7.37161 19.0088 0 
191 1 0.46 70.0 7.82684 19.02 0 
130 1 0.46 70.0 8.27923 19.0308 0 
162 1 0.46 70.0 8.72903 19.04 0 
105 1 0.46 70.0 9.17501 19.049 0 
175 1 0.46 70.0 9.61622 19.059 0 
171 1 0.46 70.0 9.83792 18.6766 0 
120 1 0.46 70.0 10.0595 19.063 0 
13 1 0.46 70.0 10.284 18.6819 0 
218 1 0.46 70.0 10.5043 19.065 0 
231 1 0.46 70.0 10.7256 18.6837 0 
37 1 0.46 70.0 10.9518 19.0561 0 
32 1 0.46 70.0 11.3982 19.0465 0 
60 1 0.46 70.0 11.8476 19.0341 0 
110 1 0.46 70.0 12.3032 19.0235 0 
31 1 0.46 70.0 12.7585 19.0094 0 
157 1 0.46 70.0 13.2255 19.0042 0 
160 1 0.46 70.0 13.6875 18.9767 0 
201 1 0.46 70.0 14.1668 18.9403 0 
212 1 0.46 70.0 14.6776 18.9199 0 
90 1 0.46 70.0 15.2857 19.0234 0 
27 1 0.46 70.0 15.865 19.0256 0 
36 1 0.46 70.0 4.17335 19.1283 0 
282 1 0.46 70.0 4.69005 19.3057 0 
274 1 0.46 70.0 5.24267 19.3546 0 
146 1 0.46 70.0 5.74583 19.3605 0 
286 1 0.46 70.0 6.22171 19.3744 0 
64 1 0.46 70.0 6.68142 19.388 0 
257 1 0.46 70.0 7.13886 19.3963 0 
263 1 0.46 70.0 7.59433 19.4047 0 
229 1 0.46 70.0 8.04746 19.413 0 
125 1 0.46 70.0 8.49817 19.4205 0 
138 1 0.46 70.0 8.94589 19.428 0 
78 1 0.46 70.0 9.39016 19.4374 0 
182 1 0.46 70.0 9.83544 19.4428 0 
245 1 0.46 70.0 10.2814 19.4445 0 
283 1 0.46 70.0 10.7282 19.4395 0 
300 1 0.46 70.0 11.1769 19.4328 0 
61 1 0.46 70.0 11.6275 19.4244 0 
112 1 0.46 70.0 12.08 19.415 0 
259 1 0.46 70.0 12.5356 19.4064 0 
133 1 0.46 70.0 12.9925 19.3973 0 
195 1 0.46 70.0 13.4564 19.3926 0 
91 1 0.46 70.0 13.9231 19.371 0 
150 1 0.46 70.0 14.4043 19.3518 0 
147 1 0.46 70.0 14.9102 19.347 0 
7 1 0.46 70.0 4.33443 19.7072 0 
122 1 0.46 70.0 4.95044 19.7615 0 
18 1 0.46 70.0 5.49253 19.7736 0 
152 1 0.46 70.0 5.98402 19.7768 0 
161 1 0.46 70.0 6.44898 19.7819 0 
19 1 0.46 70.0 6.90725 19.7869 0 
214 1 0.46 70.0 7.36335 19.7922 0 
46 1 0.46 70.0 7.81726 19.7975 0 
155 1 0.46 70.0 8.26888 19.8026 0 
164 1 0.46 70.0 8.71796 19.8075 0 
222 1 0.46 70.0 9.16456 19.8131 0 
264 1 0.46 70.0 9.61008 19.8189 0 
66 1 0.46 70.0 10.0577 19.8208 0 
169 1 0.46 70.0 10.5065 19.8197 0 
30 1 0.46 70.0 10.9541 19.8143 0 
93 1 0.46 70.0 11.4043 19.8095 0 
118 1 0.46 70.0 11.8565 19.804 0 
88 1 0.46 70.0 12.3104 19.7982 0 
56 1 0.46 70.0 12.7665 19.7927 0 
12 1 0.46 70.0 13.2245 19.7874 0 
153 1 0.46 70.0 13.6897 19.7831 0 
287 1 0.46 70.0 14.1605 19.7755 0 
225 1 0.46 70.0 14.6574 19.7725 0 
224 1 0.46 70.0 15.2106 19.7364 0 
3 1 0.46 70.0 15.734 19.609 0 
