# LAMMPS data file for rigid bodies

303 atoms

1 atom types

0.0 	 20.0 	 xlo xhi 
0.0 	 20.0 	 ylo yhi 
-1.0 	 1.0 	 zlo zhi 

Atoms

295 1 0.46 70.0 9.85464 13.1898 0 
301 1 0.46 70.0 8.26001 13.5988 0 
195 1 0.46 70.0 8.88077 13.5837 0 
136 1 0.46 70.0 9.45299 13.6474 0 
178 1 0.46 70.0 10.0633 13.7221 0 
84 1 0.46 70.0 10.62 13.5548 0 
48 1 0.46 70.0 11.2362 13.5251 0 
256 1 0.46 70.0 7.45086 14.0573 0 
205 1 0.46 70.0 8.03622 14.1296 0 
57 1 0.46 70.0 8.59916 14.114 0 
292 1 0.46 70.0 9.12946 14.1306 0 
113 1 0.46 70.0 9.64268 14.1669 0 
73 1 0.46 70.0 10.6215 14.1222 0 
220 1 0.46 70.0 11.1284 14.0924 0 
129 1 0.46 70.0 11.6577 13.9805 0 
272 1 0.46 70.0 12.2202 13.8529 0 
76 1 0.46 70.0 6.73097 14.5666 0 
281 1 0.46 70.0 7.31092 14.6115 0 
227 1 0.46 70.0 7.85052 14.6249 0 
156 1 0.46 70.0 8.38166 14.6014 0 
258 1 0.46 70.0 8.89485 14.6006 0 
192 1 0.46 70.0 9.39299 14.6217 0 
49 1 0.46 70.0 10.1395 14.2283 0 
160 1 0.46 70.0 9.89036 14.6573 0 
300 1 0.46 70.0 10.4139 14.643 0 
191 1 0.46 70.0 10.9119 14.5913 0 
215 1 0.46 70.0 11.4369 14.5343 0 
94 1 0.46 70.0 11.9776 14.4409 0 
60 1 0.46 70.0 12.571 14.3241 0 
240 1 0.46 70.0 13.3182 14.5656 0 
190 1 0.46 70.0 7.11121 15.1048 0 
123 1 0.46 70.0 7.64314 15.0921 0 
180 1 0.46 70.0 8.16661 15.0619 0 
161 1 0.46 70.0 8.67259 15.047 0 
261 1 0.46 70.0 9.16423 15.056 0 
208 1 0.46 70.0 9.64927 15.0755 0 
61 1 0.46 70.0 10.1546 15.0697 0 
15 1 0.46 70.0 10.6701 15.05 0 
283 1 0.46 70.0 11.1959 15.0046 0 
109 1 0.46 70.0 11.7363 14.9471 0 
127 1 0.46 70.0 12.2752 14.8714 0 
138 1 0.46 70.0 12.8121 14.8113 0 
278 1 0.46 70.0 13.7255 15.0467 0 
65 1 0.46 70.0 5.96641 15.1799 0 
6 1 0.46 70.0 6.55736 15.1255 0 
298 1 0.46 70.0 7.43406 15.545 0 
249 1 0.46 70.0 7.95409 15.5021 0 
201 1 0.46 70.0 8.45639 15.4764 0 
2 1 0.46 70.0 8.93708 15.4762 0 
235 1 0.46 70.0 9.40453 15.4886 0 
185 1 0.46 70.0 9.87194 15.4923 0 
291 1 0.46 70.0 10.3313 15.4933 0 
137 1 0.46 70.0 10.7874 15.4918 0 
264 1 0.46 70.0 11.2411 15.4615 0 
253 1 0.46 70.0 11.6955 15.4188 0 
90 1 0.46 70.0 12.1537 15.3567 0 
10 1 0.46 70.0 12.6455 15.3067 0 
279 1 0.46 70.0 13.1808 15.2147 0 
135 1 0.46 70.0 14.1172 15.4859 0 
288 1 0.46 70.0 5.73685 15.7543 0 
168 1 0.46 70.0 6.34472 15.6443 0 
247 1 0.46 70.0 6.90421 15.5784 0 
147 1 0.46 70.0 7.23369 15.9891 0 
31 1 0.46 70.0 7.75254 15.9294 0 
246 1 0.46 70.0 8.25438 15.8908 0 
231 1 0.46 70.0 8.73086 15.8873 0 
121 1 0.46 70.0 9.19066 15.8954 0 
28 1 0.46 70.0 9.64849 15.9013 0 
151 1 0.46 70.0 10.1055 15.9039 0 
232 1 0.46 70.0 10.5621 15.9007 0 
26 1 0.46 70.0 11.0198 15.8901 0 
197 1 0.46 70.0 11.4787 15.8661 0 
72 1 0.46 70.0 11.9478 15.8289 0 
117 1 0.46 70.0 12.4309 15.7733 0 
282 1 0.46 70.0 12.954 15.7105 0 
158 1 0.46 70.0 13.5189 15.63 0 
236 1 0.46 70.0 14.6246 15.9217 0 
177 1 0.46 70.0 5.12255 16.2096 0 
126 1 0.46 70.0 5.66846 16.3206 0 
131 1 0.46 70.0 6.19031 16.1508 0 
218 1 0.46 70.0 6.71781 16.0416 0 
4 1 0.46 70.0 7.04437 16.4355 0 
3 1 0.46 70.0 7.55591 16.3473 0 
170 1 0.46 70.0 8.05122 16.301 0 
285 1 0.46 70.0 8.51843 16.2924 0 
217 1 0.46 70.0 8.97597 16.2984 0 
86 1 0.46 70.0 9.43056 16.3034 0 
37 1 0.46 70.0 9.88406 16.3047 0 
41 1 0.46 70.0 10.3371 16.3013 0 
46 1 0.46 70.0 10.7905 16.2969 0 
116 1 0.46 70.0 11.2456 16.2874 0 
144 1 0.46 70.0 11.7023 16.2662 0 
229 1 0.46 70.0 12.1605 16.2367 0 
275 1 0.46 70.0 12.6201 16.1966 0 
9 1 0.46 70.0 13.0858 16.1641 0 
119 1 0.46 70.0 13.5635 16.1286 0 
83 1 0.46 70.0 14.0615 16.038 0 
142 1 0.46 70.0 4.96678 16.8058 0 
243 1 0.46 70.0 5.5213 16.8491 0 
251 1 0.46 70.0 6.06777 16.6658 0 
107 1 0.46 70.0 6.57431 16.5122 0 
206 1 0.46 70.0 7.3644 16.7648 0 
130 1 0.46 70.0 7.8479 16.7089 0 
193 1 0.46 70.0 8.30742 16.6948 0 
211 1 0.46 70.0 8.76293 16.6983 0 
43 1 0.46 70.0 9.21537 16.7024 0 
56 1 0.46 70.0 9.66537 16.7031 0 
184 1 0.46 70.0 10.1156 16.7009 0 
196 1 0.46 70.0 10.566 16.6968 0 
55 1 0.46 70.0 11.0169 16.6909 0 
169 1 0.46 70.0 11.4697 16.6825 0 
91 1 0.46 70.0 11.9247 16.665 0 
164 1 0.46 70.0 12.3818 16.6396 0 
134 1 0.46 70.0 12.8435 16.6126 0 
40 1 0.46 70.0 13.3255 16.5852 0 
274 1 0.46 70.0 13.841 16.5575 0 
114 1 0.46 70.0 14.3692 16.4949 0 
233 1 0.46 70.0 14.9545 16.4585 0 
280 1 0.46 70.0 5.94536 17.1507 0 
13 1 0.46 70.0 6.47569 16.9618 0 
287 1 0.46 70.0 6.9446 16.9386 0 
34 1 0.46 70.0 7.64454 17.115 0 
299 1 0.46 70.0 8.0985 17.0946 0 
20 1 0.46 70.0 8.55017 17.0948 0 
230 1 0.46 70.0 8.9996 17.0975 0 
63 1 0.46 70.0 9.44743 17.099 0 
284 1 0.46 70.0 9.89562 17.0986 0 
53 1 0.46 70.0 10.3439 17.0955 0 
87 1 0.46 70.0 10.7924 17.09 0 
155 1 0.46 70.0 11.243 17.0827 0 
19 1 0.46 70.0 11.6954 17.074 0 
143 1 0.46 70.0 12.1501 17.0599 0 
128 1 0.46 70.0 12.6073 17.0386 0 
234 1 0.46 70.0 13.0744 17.0149 0 
101 1 0.46 70.0 13.5681 16.9887 0 
210 1 0.46 70.0 14.1046 16.9909 0 
297 1 0.46 70.0 14.6426 16.9665 0 
228 1 0.46 70.0 15.2594 16.9962 0 
146 1 0.46 70.0 4.83207 17.3536 0 
45 1 0.46 70.0 5.39081 17.3807 0 
223 1 0.46 70.0 5.83087 17.6247 0 
244 1 0.46 70.0 6.36474 17.4042 0 
252 1 0.46 70.0 6.83023 17.3818 0 
167 1 0.46 70.0 7.28636 17.3785 0 
183 1 0.46 70.0 7.88182 17.4895 0 
242 1 0.46 70.0 8.33309 17.4875 0 
140 1 0.46 70.0 8.7824 17.4901 0 
88 1 0.46 70.0 9.23027 17.4926 0 
52 1 0.46 70.0 9.67663 17.4937 0 
21 1 0.46 70.0 10.1234 17.4921 0 
25 1 0.46 70.0 10.5706 17.4876 0 
11 1 0.46 70.0 11.0184 17.4807 0 
54 1 0.46 70.0 11.4688 17.4727 0 
152 1 0.46 70.0 11.9218 17.4633 0 
226 1 0.46 70.0 12.3769 17.4519 0 
222 1 0.46 70.0 12.835 17.4344 0 
187 1 0.46 70.0 13.3052 17.4119 0 
270 1 0.46 70.0 13.8012 17.388 0 
289 1 0.46 70.0 14.3616 17.4384 0 
93 1 0.46 70.0 14.9017 17.4401 0 
16 1 0.46 70.0 15.5943 17.5422 0 
194 1 0.46 70.0 4.50111 17.8153 0 
259 1 0.46 70.0 5.1088 17.8648 0 
162 1 0.46 70.0 5.58505 18.0367 0 
23 1 0.46 70.0 6.24259 17.8403 0 
276 1 0.46 70.0 6.70325 17.8196 0 
157 1 0.46 70.0 7.15955 17.814 0 
98 1 0.46 70.0 7.61111 17.8336 0 
199 1 0.46 70.0 8.10755 17.8753 0 
120 1 0.46 70.0 8.56114 17.8796 0 
245 1 0.46 70.0 9.01058 17.8832 0 
171 1 0.46 70.0 9.45709 17.8859 0 
36 1 0.46 70.0 9.90313 17.8861 0 
77 1 0.46 70.0 10.3491 17.8831 0 
71 1 0.46 70.0 10.7953 17.8768 0 
145 1 0.46 70.0 11.2438 17.8691 0 
255 1 0.46 70.0 11.695 17.8607 0 
207 1 0.46 70.0 12.1489 17.8512 0 
186 1 0.46 70.0 12.605 17.8414 0 
85 1 0.46 70.0 13.0637 17.8284 0 
182 1 0.46 70.0 13.5342 17.8093 0 
58 1 0.46 70.0 13.7604 18.2086 0 
67 1 0.46 70.0 14.0264 17.7881 0 
265 1 0.46 70.0 14.6231 17.9056 0 
263 1 0.46 70.0 14.2445 18.1905 0 
166 1 0.46 70.0 15.1656 17.9016 0 
268 1 0.46 70.0 4.14801 18.3164 0 
165 1 0.46 70.0 4.77925 18.3224 0 
273 1 0.46 70.0 5.28934 18.4331 0 
1 1 0.46 70.0 5.74835 18.5996 0 
102 1 0.46 70.0 6.01746 18.2329 0 
125 1 0.46 70.0 6.26526 18.6225 0 
95 1 0.46 70.0 6.50483 18.2314 0 
159 1 0.46 70.0 6.96976 18.2272 0 
104 1 0.46 70.0 6.74222 18.6223 0 
42 1 0.46 70.0 7.42621 18.2396 0 
79 1 0.46 70.0 7.20007 18.6273 0 
163 1 0.46 70.0 7.87963 18.251 0 
97 1 0.46 70.0 7.65627 18.6361 0 
99 1 0.46 70.0 8.11091 18.6449 0 
64 1 0.46 70.0 8.33681 18.2645 0 
92 1 0.46 70.0 8.78893 18.2702 0 
250 1 0.46 70.0 8.56496 18.6536 0 
271 1 0.46 70.0 9.23739 18.2743 0 
122 1 0.46 70.0 9.01528 18.6592 0 
188 1 0.46 70.0 9.68298 18.277 0 
266 1 0.46 70.0 9.46182 18.664 0 
176 1 0.46 70.0 10.1285 18.2759 0 
17 1 0.46 70.0 9.90749 18.6655 0 
172 1 0.46 70.0 10.5741 18.2711 0 
75 1 0.46 70.0 10.3527 18.6628 0 
27 1 0.46 70.0 11.0203 18.2635 0 
269 1 0.46 70.0 10.7977 18.6559 0 
22 1 0.46 70.0 11.4696 18.2556 0 
239 1 0.46 70.0 11.2454 18.6482 0 
124 1 0.46 70.0 11.9216 18.2473 0 
224 1 0.46 70.0 11.6957 18.6408 0 
47 1 0.46 70.0 12.1487 18.6335 0 
133 1 0.46 70.0 12.3762 18.2388 0 
14 1 0.46 70.0 12.8332 18.2304 0 
175 1 0.46 70.0 12.6042 18.6263 0 
200 1 0.46 70.0 13.2925 18.2223 0 
39 1 0.46 70.0 13.0623 18.6197 0 
254 1 0.46 70.0 13.525 18.6154 0 
24 1 0.46 70.0 13.9989 18.6051 0 
18 1 0.46 70.0 14.5014 18.5692 0 
248 1 0.46 70.0 14.9429 18.3651 0 
149 1 0.46 70.0 15.5904 18.2612 0 
290 1 0.46 70.0 4.4597 18.795 0 
150 1 0.46 70.0 5.00315 18.854 0 
303 1 0.46 70.0 5.49058 18.9777 0 
62 1 0.46 70.0 6.01187 19.0041 0 
238 1 0.46 70.0 6.50694 19.0122 0 
96 1 0.46 70.0 6.97247 19.0163 0 
132 1 0.46 70.0 7.43024 19.0216 0 
209 1 0.46 70.0 7.88607 19.0283 0 
50 1 0.46 70.0 8.33994 19.0349 0 
12 1 0.46 70.0 8.79187 19.0413 0 
225 1 0.46 70.0 9.24071 19.0468 0 
7 1 0.46 70.0 9.68632 19.0513 0 
66 1 0.46 70.0 10.132 19.0512 0 
204 1 0.46 70.0 10.5774 19.0465 0 
174 1 0.46 70.0 11.0229 19.0387 0 
82 1 0.46 70.0 11.4714 19.0319 0 
118 1 0.46 70.0 11.9227 19.0257 0 
189 1 0.46 70.0 12.3765 19.0197 0 
296 1 0.46 70.0 12.8331 19.0141 0 
70 1 0.46 70.0 13.2925 19.0097 0 
115 1 0.46 70.0 13.7648 19.0061 0 
68 1 0.46 70.0 14.2599 18.9894 0 
213 1 0.46 70.0 14.7945 18.9286 0 
221 1 0.46 70.0 15.295 18.764 0 
148 1 0.46 70.0 15.9286 18.7687 0 
173 1 0.46 70.0 4.05642 19.2222 0 
216 1 0.46 70.0 4.69993 19.2879 0 
103 1 0.46 70.0 5.22491 19.3611 0 
262 1 0.46 70.0 5.75706 19.3864 0 
33 1 0.46 70.0 6.26102 19.3961 0 
100 1 0.46 70.0 6.74132 19.404 0 
112 1 0.46 70.0 7.2023 19.4079 0 
257 1 0.46 70.0 7.6595 19.4124 0 
241 1 0.46 70.0 8.11438 19.4174 0 
260 1 0.46 70.0 8.56689 19.4223 0 
5 1 0.46 70.0 9.01685 19.4272 0 
198 1 0.46 70.0 9.46358 19.433 0 
267 1 0.46 70.0 9.91025 19.4353 0 
154 1 0.46 70.0 10.3566 19.4336 0 
8 1 0.46 70.0 10.8015 19.427 0 
89 1 0.46 70.0 11.2487 19.4208 0 
202 1 0.46 70.0 11.6983 19.4157 0 
81 1 0.46 70.0 12.1505 19.411 0 
293 1 0.46 70.0 12.6054 19.4066 0 
110 1 0.46 70.0 13.063 19.4025 0 
59 1 0.46 70.0 13.528 19.3984 0 
69 1 0.46 70.0 14.0136 19.3921 0 
212 1 0.46 70.0 14.5287 19.3679 0 
139 1 0.46 70.0 15.0565 19.3294 0 
294 1 0.46 70.0 15.5814 19.2264 0 
80 1 0.46 70.0 4.37662 19.7124 0 
78 1 0.46 70.0 4.95466 19.7656 0 
179 1 0.46 70.0 5.50058 19.7746 0 
108 1 0.46 70.0 6.0129 19.7805 0 
214 1 0.46 70.0 6.4998 19.7873 0 
203 1 0.46 70.0 6.97228 19.7945 0 
277 1 0.46 70.0 7.43123 19.7976 0 
38 1 0.46 70.0 7.88738 19.8008 0 
153 1 0.46 70.0 8.34104 19.8041 0 
141 1 0.46 70.0 8.79223 19.8074 0 
29 1 0.46 70.0 9.24095 19.8112 0 
74 1 0.46 70.0 9.68772 19.8152 0 
51 1 0.46 70.0 10.1355 19.8154 0 
44 1 0.46 70.0 10.5828 19.8133 0 
30 1 0.46 70.0 11.028 19.8074 0 
35 1 0.46 70.0 11.4756 19.8037 0 
237 1 0.46 70.0 11.9261 19.8004 0 
302 1 0.46 70.0 12.3795 19.7972 0 
32 1 0.46 70.0 12.836 19.7942 0 
111 1 0.46 70.0 13.2958 19.7905 0 
105 1 0.46 70.0 13.7721 19.7835 0 
181 1 0.46 70.0 14.267 19.7765 0 
106 1 0.46 70.0 14.7882 19.7715 0 
219 1 0.46 70.0 15.3464 19.744 0 
286 1 0.46 70.0 15.946 19.6486 0 
