# LAMMPS data file for rigid bodies

303 atoms

1 atom types

0.0 	 20.0 	 xlo xhi 
0.0 	 20.0 	 ylo yhi 
-1.0 	 1.0 	 zlo zhi 

Atoms

36 1 0.46 70.0 10.2747 13.2508 0 
211 1 0.46 70.0 8.97836 13.4129 0 
233 1 0.46 70.0 9.6157 13.339 0 
206 1 0.46 70.0 10.6055 13.7162 0 
12 1 0.46 70.0 11.1719 13.5346 0 
76 1 0.46 70.0 7.72775 13.9518 0 
108 1 0.46 70.0 8.3404 13.7814 0 
128 1 0.46 70.0 8.88575 13.9672 0 
197 1 0.46 70.0 9.43757 13.8854 0 
207 1 0.46 70.0 10.0094 13.8019 0 
129 1 0.46 70.0 10.8666 14.1685 0 
244 1 0.46 70.0 11.3965 14.0579 0 
213 1 0.46 70.0 11.95 13.8756 0 
34 1 0.46 70.0 7.16657 14.5055 0 
262 1 0.46 70.0 7.73957 14.5095 0 
96 1 0.46 70.0 8.27652 14.3549 0 
186 1 0.46 70.0 8.7864 14.4603 0 
217 1 0.46 70.0 9.29994 14.3925 0 
277 1 0.46 70.0 9.80994 14.3138 0 
298 1 0.46 70.0 10.3338 14.2348 0 
106 1 0.46 70.0 10.6248 14.652 0 
71 1 0.46 70.0 11.1397 14.5937 0 
232 1 0.46 70.0 11.651 14.5165 0 
112 1 0.46 70.0 12.1695 14.4094 0 
7 1 0.46 70.0 12.7154 14.2311 0 
190 1 0.46 70.0 13.4453 14.6255 0 
251 1 0.46 70.0 6.56715 14.756 0 
216 1 0.46 70.0 7.07084 15.0814 0 
84 1 0.46 70.0 7.59685 15.0111 0 
188 1 0.46 70.0 8.14305 14.8751 0 
41 1 0.46 70.0 8.6369 14.9129 0 
234 1 0.46 70.0 9.1368 14.8682 0 
154 1 0.46 70.0 9.62664 14.8015 0 
121 1 0.46 70.0 10.1204 14.7255 0 
189 1 0.46 70.0 10.4267 15.1075 0 
122 1 0.46 70.0 10.9168 15.0557 0 
176 1 0.46 70.0 11.4088 15.0133 0 
49 1 0.46 70.0 11.9004 14.958 0 
221 1 0.46 70.0 12.3966 14.8878 0 
301 1 0.46 70.0 12.9041 14.7857 0 
148 1 0.46 70.0 5.96573 15.2997 0 
272 1 0.46 70.0 6.53333 15.3398 0 
45 1 0.46 70.0 7.4696 15.5101 0 
78 1 0.46 70.0 7.9933 15.3441 0 
91 1 0.46 70.0 8.47882 15.3499 0 
275 1 0.46 70.0 8.96586 15.317 0 
222 1 0.46 70.0 9.4475 15.2611 0 
101 1 0.46 70.0 9.92964 15.192 0 
67 1 0.46 70.0 10.2453 15.537 0 
258 1 0.46 70.0 10.7222 15.4919 0 
289 1 0.46 70.0 11.1991 15.4605 0 
177 1 0.46 70.0 11.6817 15.4264 0 
227 1 0.46 70.0 12.1727 15.381 0 
141 1 0.46 70.0 12.6791 15.3238 0 
114 1 0.46 70.0 13.2046 15.2454 0 
118 1 0.46 70.0 13.7683 15.1393 0 
133 1 0.46 70.0 5.74572 15.8551 0 
57 1 0.46 70.0 6.32444 15.849 0 
113 1 0.46 70.0 6.9779 15.603 0 
125 1 0.46 70.0 7.86075 15.7881 0 
86 1 0.46 70.0 8.33119 15.7845 0 
48 1 0.46 70.0 8.79876 15.7502 0 
261 1 0.46 70.0 9.27131 15.6966 0 
13 1 0.46 70.0 9.74506 15.6378 0 
88 1 0.46 70.0 10.0715 15.9582 0 
295 1 0.46 70.0 10.5408 15.9133 0 
236 1 0.46 70.0 11.0027 15.8841 0 
10 1 0.46 70.0 11.4709 15.8611 0 
157 1 0.46 70.0 11.9485 15.8306 0 
131 1 0.46 70.0 12.4404 15.7904 0 
248 1 0.46 70.0 12.9542 15.7467 0 
281 1 0.46 70.0 13.4943 15.6894 0 
55 1 0.46 70.0 14.0889 15.605 0 
185 1 0.46 70.0 14.7423 15.9731 0 
245 1 0.46 70.0 5.09423 16.2429 0 
120 1 0.46 70.0 5.63342 16.3942 0 
136 1 0.46 70.0 6.16182 16.355 0 
158 1 0.46 70.0 6.79656 16.0537 0 
90 1 0.46 70.0 7.30687 16.0075 0 
152 1 0.46 70.0 7.71457 16.2193 0 
74 1 0.46 70.0 8.17343 16.2143 0 
58 1 0.46 70.0 8.62986 16.1798 0 
226 1 0.46 70.0 9.08541 16.1211 0 
89 1 0.46 70.0 9.54729 16.064 0 
100 1 0.46 70.0 9.88318 16.3661 0 
229 1 0.46 70.0 10.3487 16.3263 0 
56 1 0.46 70.0 10.807 16.2983 0 
147 1 0.46 70.0 11.2658 16.2753 0 
144 1 0.46 70.0 11.7281 16.2567 0 
3 1 0.46 70.0 12.1998 16.2293 0 
119 1 0.46 70.0 12.6841 16.1984 0 
150 1 0.46 70.0 13.1835 16.1786 0 
15 1 0.46 70.0 13.6855 16.1574 0 
171 1 0.46 70.0 14.1999 16.1304 0 
243 1 0.46 70.0 4.76627 16.8277 0 
223 1 0.46 70.0 5.33444 16.8636 0 
65 1 0.46 70.0 5.9118 16.8391 0 
38 1 0.46 70.0 6.63016 16.4949 0 
198 1 0.46 70.0 7.11026 16.4732 0 
276 1 0.46 70.0 7.53734 16.6338 0 
42 1 0.46 70.0 7.99471 16.6343 0 
231 1 0.46 70.0 8.44854 16.6091 0 
19 1 0.46 70.0 8.89978 16.5501 0 
255 1 0.46 70.0 9.35314 16.4899 0 
5 1 0.46 70.0 9.6981 16.7689 0 
166 1 0.46 70.0 10.1535 16.7333 0 
267 1 0.46 70.0 10.6071 16.7063 0 
168 1 0.46 70.0 11.0609 16.684 0 
182 1 0.46 70.0 11.517 16.665 0 
297 1 0.46 70.0 11.9756 16.6487 0 
192 1 0.46 70.0 12.4416 16.6264 0 
11 1 0.46 70.0 12.9232 16.6062 0 
127 1 0.46 70.0 13.4302 16.6133 0 
292 1 0.46 70.0 13.9427 16.6091 0 
252 1 0.46 70.0 14.494 16.5746 0 
200 1 0.46 70.0 15.0851 16.5491 0 
302 1 0.46 70.0 5.64994 17.2785 0 
162 1 0.46 70.0 6.16017 17.3159 0 
279 1 0.46 70.0 6.39802 16.9031 0 
263 1 0.46 70.0 6.88298 16.9254 0 
204 1 0.46 70.0 7.32684 17.0307 0 
220 1 0.46 70.0 7.78539 17.038 0 
143 1 0.46 70.0 8.2419 17.032 0 
17 1 0.46 70.0 8.69421 16.9936 0 
199 1 0.46 70.0 9.14253 16.9298 0 
260 1 0.46 70.0 9.51145 17.162 0 
99 1 0.46 70.0 9.96093 17.1365 0 
164 1 0.46 70.0 10.4079 17.1118 0 
278 1 0.46 70.0 10.8555 17.0901 0 
219 1 0.46 70.0 11.3059 17.0709 0 
239 1 0.46 70.0 11.7594 17.0543 0 
124 1 0.46 70.0 12.2162 17.0399 0 
287 1 0.46 70.0 12.6768 17.0218 0 
169 1 0.46 70.0 13.1583 17.0086 0 
104 1 0.46 70.0 13.6866 17.0457 0 
246 1 0.46 70.0 14.208 17.0442 0 
72 1 0.46 70.0 14.7619 17.0413 0 
64 1 0.46 70.0 15.4131 17.1269 0 
16 1 0.46 70.0 4.43138 17.3858 0 
59 1 0.46 70.0 5.02917 17.3789 0 
87 1 0.46 70.0 5.41462 17.7131 0 
82 1 0.46 70.0 5.92799 17.7294 0 
256 1 0.46 70.0 6.64503 17.3459 0 
24 1 0.46 70.0 6.41286 17.7569 0 
265 1 0.46 70.0 7.09749 17.4192 0 
130 1 0.46 70.0 7.55851 17.4317 0 
286 1 0.46 70.0 8.01605 17.4333 0 
160 1 0.46 70.0 8.46883 17.4286 0 
218 1 0.46 70.0 8.91542 17.3862 0 
39 1 0.46 70.0 9.31964 17.5424 0 
235 1 0.46 70.0 9.76447 17.5332 0 
20 1 0.46 70.0 10.2074 17.5147 0 
27 1 0.46 70.0 10.6502 17.4944 0 
184 1 0.46 70.0 11.0959 17.4755 0 
266 1 0.46 70.0 11.5448 17.4586 0 
70 1 0.46 70.0 11.997 17.444 0 
259 1 0.46 70.0 12.4526 17.4317 0 
111 1 0.46 70.0 12.9115 17.4164 0 
69 1 0.46 70.0 13.3904 17.4047 0 
44 1 0.46 70.0 13.9485 17.4809 0 
6 1 0.46 70.0 14.456 17.494 0 
26 1 0.46 70.0 15.0017 17.5149 0 
165 1 0.46 70.0 4.66369 17.9108 0 
241 1 0.46 70.0 5.14065 18.1196 0 
290 1 0.46 70.0 5.68379 18.1416 0 
18 1 0.46 70.0 6.17655 18.1631 0 
274 1 0.46 70.0 6.63832 18.2031 0 
282 1 0.46 70.0 6.86912 17.8107 0 
25 1 0.46 70.0 7.09846 18.2137 0 
33 1 0.46 70.0 7.32887 17.823 0 
81 1 0.46 70.0 7.78624 17.8284 0 
63 1 0.46 70.0 7.55596 18.2205 0 
284 1 0.46 70.0 8.23888 17.8316 0 
35 1 0.46 70.0 8.68589 17.8271 0 
242 1 0.46 70.0 9.11264 17.9125 0 
172 1 0.46 70.0 9.55754 17.9211 0 
170 1 0.46 70.0 10.0007 17.9122 0 
31 1 0.46 70.0 10.4427 17.8961 0 
254 1 0.46 70.0 10.885 17.878 0 
21 1 0.46 70.0 11.3304 17.8614 0 
201 1 0.46 70.0 11.7791 17.8466 0 
264 1 0.46 70.0 12.231 17.834 0 
181 1 0.46 70.0 12.6862 17.8232 0 
46 1 0.46 70.0 13.1446 17.8109 0 
303 1 0.46 70.0 12.9182 18.2147 0 
209 1 0.46 70.0 13.6191 17.8003 0 
174 1 0.46 70.0 13.3763 18.2059 0 
296 1 0.46 70.0 13.842 18.1968 0 
23 1 0.46 70.0 14.2201 17.9386 0 
66 1 0.46 70.0 14.7299 17.9437 0 
28 1 0.46 70.0 15.433 17.8351 0 
29 1 0.46 70.0 4.27316 18.3713 0 
43 1 0.46 70.0 4.81853 18.5259 0 
97 1 0.46 70.0 5.41768 18.5386 0 
60 1 0.46 70.0 5.93114 18.5646 0 
54 1 0.46 70.0 6.40403 18.5955 0 
271 1 0.46 70.0 6.86716 18.6044 0 
40 1 0.46 70.0 7.32503 18.6112 0 
270 1 0.46 70.0 7.77955 18.6177 0 
273 1 0.46 70.0 8.00978 18.2264 0 
8 1 0.46 70.0 8.22993 18.6257 0 
137 1 0.46 70.0 8.4585 18.2313 0 
195 1 0.46 70.0 8.67193 18.6536 0 
61 1 0.46 70.0 8.89506 18.2814 0 
105 1 0.46 70.0 9.3411 18.2996 0 
14 1 0.46 70.0 9.78604 18.3019 0 
299 1 0.46 70.0 10.2292 18.2926 0 
208 1 0.46 70.0 10.6711 18.2774 0 
191 1 0.46 70.0 10.8977 18.6581 0 
178 1 0.46 70.0 11.1149 18.2615 0 
280 1 0.46 70.0 11.3429 18.6447 0 
126 1 0.46 70.0 11.5613 18.2471 0 
80 1 0.46 70.0 11.7906 18.6329 0 
183 1 0.46 70.0 12.0106 18.2347 0 
142 1 0.46 70.0 12.241 18.6228 0 
110 1 0.46 70.0 12.4629 18.224 0 
22 1 0.46 70.0 12.6945 18.614 0 
95 1 0.46 70.0 13.1512 18.6062 0 
47 1 0.46 70.0 13.6114 18.5996 0 
237 1 0.46 70.0 14.0958 18.5741 0 
210 1 0.46 70.0 14.5218 18.394 0 
203 1 0.46 70.0 15.0789 18.3156 0 
83 1 0.46 70.0 15.7016 18.3319 0 
92 1 0.46 70.0 3.96913 18.9402 0 
37 1 0.46 70.0 4.52986 19.0005 0 
187 1 0.46 70.0 5.14532 18.9287 0 
163 1 0.46 70.0 5.67786 18.9587 0 
4 1 0.46 70.0 6.16593 18.9871 0 
132 1 0.46 70.0 6.63516 18.9957 0 
224 1 0.46 70.0 7.09375 19.0019 0 
212 1 0.46 70.0 7.54892 19.0078 0 
94 1 0.46 70.0 8.00014 19.015 0 
98 1 0.46 70.0 8.44608 19.0304 0 
167 1 0.46 70.0 9.11862 18.6737 0 
140 1 0.46 70.0 8.89407 19.0474 0 
103 1 0.46 70.0 9.56528 18.6835 0 
179 1 0.46 70.0 9.34262 19.0595 0 
250 1 0.46 70.0 10.0109 18.6822 0 
50 1 0.46 70.0 9.78909 19.0648 0 
294 1 0.46 70.0 10.4547 18.6722 0 
68 1 0.46 70.0 10.2347 19.061 0 
293 1 0.46 70.0 10.6783 19.0503 0 
93 1 0.46 70.0 11.1234 19.0385 0 
225 1 0.46 70.0 11.5702 19.0281 0 
79 1 0.46 70.0 12.0194 19.019 0 
238 1 0.46 70.0 12.4712 19.0112 0 
145 1 0.46 70.0 12.9261 19.0042 0 
53 1 0.46 70.0 13.3843 18.9979 0 
161 1 0.46 70.0 13.856 18.9874 0 
288 1 0.46 70.0 14.3528 18.9528 0 
249 1 0.46 70.0 14.8165 18.8103 0 
51 1 0.46 70.0 15.3448 18.7764 0 
155 1 0.46 70.0 16.013 18.8558 0 
73 1 0.46 70.0 4.11067 19.5527 0 
269 1 0.46 70.0 4.90713 19.3482 0 
146 1 0.46 70.0 5.42947 19.3572 0 
134 1 0.46 70.0 5.9259 19.3785 0 
257 1 0.46 70.0 6.40296 19.3882 0 
109 1 0.46 70.0 6.86262 19.3932 0 
151 1 0.46 70.0 7.31889 19.3981 0 
116 1 0.46 70.0 7.77154 19.4036 0 
107 1 0.46 70.0 8.2205 19.4127 0 
139 1 0.46 70.0 8.66878 19.4236 0 
102 1 0.46 70.0 9.11756 19.4338 0 
149 1 0.46 70.0 9.56509 19.4419 0 
138 1 0.46 70.0 10.0127 19.4434 0 
253 1 0.46 70.0 10.4591 19.438 0 
153 1 0.46 70.0 10.9036 19.4281 0 
32 1 0.46 70.0 11.3497 19.4197 0 
2 1 0.46 70.0 11.7977 19.4124 0 
117 1 0.46 70.0 12.2482 19.406 0 
180 1 0.46 70.0 12.7016 19.4002 0 
228 1 0.46 70.0 13.1581 19.3949 0 
62 1 0.46 70.0 13.6192 19.3888 0 
283 1 0.46 70.0 14.0984 19.3768 0 
77 1 0.46 70.0 14.5914 19.3479 0 
123 1 0.46 70.0 15.0725 19.2676 0 
159 1 0.46 70.0 15.6043 19.2451 0 
230 1 0.46 70.0 4.61869 19.7431 0 
1 1 0.46 70.0 5.18032 19.7721 0 
196 1 0.46 70.0 5.68741 19.7758 0 
215 1 0.46 70.0 6.169 19.7812 0 
194 1 0.46 70.0 6.63187 19.7857 0 
247 1 0.46 70.0 7.08928 19.7892 0 
214 1 0.46 70.0 7.54331 19.7929 0 
240 1 0.46 70.0 7.99413 19.7979 0 
193 1 0.46 70.0 8.44343 19.8039 0 
205 1 0.46 70.0 8.89249 19.81 0 
291 1 0.46 70.0 9.3413 19.8156 0 
175 1 0.46 70.0 9.78913 19.8199 0 
202 1 0.46 70.0 10.2374 19.8191 0 
85 1 0.46 70.0 10.683 19.8134 0 
115 1 0.46 70.0 11.1289 19.8077 0 
9 1 0.46 70.0 11.5761 19.8027 0 
156 1 0.46 70.0 12.0254 19.7982 0 
268 1 0.46 70.0 12.4772 19.7941 0 
30 1 0.46 70.0 12.9321 19.7903 0 
75 1 0.46 70.0 13.3903 19.7861 0 
285 1 0.46 70.0 13.8552 19.7808 0 
173 1 0.46 70.0 14.3376 19.7753 0 
300 1 0.46 70.0 14.8413 19.7658 0 
52 1 0.46 70.0 15.3613 19.7307 0 
135 1 0.46 70.0 15.9721 19.6584 0 
