# LAMMPS data file for rigid bodies

303 atoms

1 atom types

0.0 	 20.0 	 xlo xhi 
0.0 	 20.0 	 ylo yhi 
-1.0 	 1.0 	 zlo zhi 

Atoms

24 1 0.46 70.0 10.6393 13.3077 0 
84 1 0.46 70.0 8.65838 13.507 0 
104 1 0.46 70.0 9.26831 13.5841 0 
172 1 0.46 70.0 10.106 13.5554 0 
125 1 0.46 70.0 11.1925 13.6039 0 
167 1 0.46 70.0 12.1386 13.6918 0 
16 1 0.46 70.0 7.61994 13.8266 0 
254 1 0.46 70.0 8.19722 13.9453 0 
105 1 0.46 70.0 8.7435 14.0739 0 
246 1 0.46 70.0 9.25409 14.1948 0 
175 1 0.46 70.0 9.71071 13.9216 0 
17 1 0.46 70.0 10.2094 14.1661 0 
7 1 0.46 70.0 10.665 13.8957 0 
97 1 0.46 70.0 11.1451 14.2032 0 
8 1 0.46 70.0 11.6397 13.9734 0 
11 1 0.46 70.0 12.6755 14.066 0 
60 1 0.46 70.0 7.17781 14.2689 0 
291 1 0.46 70.0 7.76941 14.3996 0 
270 1 0.46 70.0 8.3085 14.4936 0 
170 1 0.46 70.0 8.82125 14.5923 0 
275 1 0.46 70.0 9.76126 14.4449 0 
32 1 0.46 70.0 10.6846 14.4467 0 
25 1 0.46 70.0 11.6322 14.5195 0 
221 1 0.46 70.0 12.1353 14.3039 0 
205 1 0.46 70.0 12.617 14.6519 0 
185 1 0.46 70.0 13.1724 14.4442 0 
43 1 0.46 70.0 6.77922 14.6987 0 
251 1 0.46 70.0 7.3766 14.8166 0 
234 1 0.46 70.0 7.91542 14.9111 0 
229 1 0.46 70.0 8.42036 14.9936 0 
51 1 0.46 70.0 8.90558 15.0734 0 
278 1 0.46 70.0 9.31881 14.6981 0 
206 1 0.46 70.0 9.81054 14.9315 0 
187 1 0.46 70.0 10.2442 14.6909 0 
122 1 0.46 70.0 10.718 14.9474 0 
150 1 0.46 70.0 11.1621 14.7284 0 
203 1 0.46 70.0 11.6313 15.0254 0 
31 1 0.46 70.0 12.1074 14.8365 0 
93 1 0.46 70.0 13.0679 15.0229 0 
111 1 0.46 70.0 13.6351 14.8404 0 
100 1 0.46 70.0 5.72327 15.4102 0 
1 1 0.46 70.0 6.4181 15.1309 0 
23 1 0.46 70.0 7.02306 15.2289 0 
173 1 0.46 70.0 7.56311 15.3146 0 
109 1 0.46 70.0 8.06665 15.3918 0 
258 1 0.46 70.0 8.54645 15.4655 0 
261 1 0.46 70.0 9.01203 15.5292 0 
116 1 0.46 70.0 9.38 15.1588 0 
265 1 0.46 70.0 9.87723 15.3867 0 
81 1 0.46 70.0 10.2953 15.173 0 
137 1 0.46 70.0 10.7658 15.4202 0 
177 1 0.46 70.0 11.1854 15.2194 0 
257 1 0.46 70.0 11.6026 15.5126 0 
180 1 0.46 70.0 12.064 15.3357 0 
156 1 0.46 70.0 12.5515 15.1784 0 
300 1 0.46 70.0 12.9726 15.5464 0 
58 1 0.46 70.0 13.4938 15.4087 0 
78 1 0.46 70.0 14.0766 15.2537 0 
133 1 0.46 70.0 5.35838 15.9523 0 
273 1 0.46 70.0 6.23446 15.6379 0 
77 1 0.46 70.0 6.75594 15.6703 0 
35 1 0.46 70.0 7.26245 15.7253 0 
248 1 0.46 70.0 7.74901 15.7899 0 
68 1 0.46 70.0 8.21415 15.8546 0 
240 1 0.46 70.0 8.66798 15.918 0 
279 1 0.46 70.0 9.11801 15.9746 0 
140 1 0.46 70.0 9.47167 15.605 0 
224 1 0.46 70.0 9.95467 15.8367 0 
174 1 0.46 70.0 10.3585 15.6286 0 
71 1 0.46 70.0 10.7468 15.897 0 
144 1 0.46 70.0 11.1653 15.7022 0 
21 1 0.46 70.0 11.559 15.9804 0 
230 1 0.46 70.0 12.0098 15.8098 0 
96 1 0.46 70.0 12.4809 15.6699 0 
117 1 0.46 70.0 13.3718 15.9285 0 
178 1 0.46 70.0 13.9004 15.806 0 
95 1 0.46 70.0 14.5105 15.6886 0 
222 1 0.46 70.0 5.92056 16.0651 0 
3 1 0.46 70.0 6.47465 16.116 0 
158 1 0.46 70.0 6.9866 16.1454 0 
26 1 0.46 70.0 7.47484 16.1926 0 
267 1 0.46 70.0 7.94711 16.2467 0 
217 1 0.46 70.0 8.41144 16.2994 0 
118 1 0.46 70.0 8.87461 16.357 0 
266 1 0.46 70.0 9.55705 16.0462 0 
80 1 0.46 70.0 9.9216 16.3003 0 
154 1 0.46 70.0 10.3332 16.0956 0 
87 1 0.46 70.0 10.7118 16.3551 0 
285 1 0.46 70.0 11.13 16.166 0 
212 1 0.46 70.0 11.5055 16.4363 0 
160 1 0.46 70.0 11.946 16.2649 0 
22 1 0.46 70.0 12.4045 16.1358 0 
235 1 0.46 70.0 12.8781 16.0374 0 
14 1 0.46 70.0 13.2561 16.4188 0 
55 1 0.46 70.0 13.7542 16.3192 0 
83 1 0.46 70.0 14.2917 16.2142 0 
264 1 0.46 70.0 14.9591 16.1614 0 
10 1 0.46 70.0 5.01524 16.4743 0 
204 1 0.46 70.0 5.61419 16.5103 0 
69 1 0.46 70.0 6.18007 16.5343 0 
86 1 0.46 70.0 6.71131 16.5598 0 
276 1 0.46 70.0 7.20399 16.5928 0 
98 1 0.46 70.0 7.6754 16.6343 0 
303 1 0.46 70.0 8.13627 16.6738 0 
249 1 0.46 70.0 8.59334 16.7202 0 
250 1 0.46 70.0 9.04768 16.7755 0 
147 1 0.46 70.0 9.36061 16.4431 0 
106 1 0.46 70.0 9.49163 16.8691 0 
232 1 0.46 70.0 9.89779 16.7441 0 
38 1 0.46 70.0 10.3018 16.5506 0 
281 1 0.46 70.0 10.6647 16.8124 0 
85 1 0.46 70.0 11.0809 16.6216 0 
231 1 0.46 70.0 11.4489 16.8885 0 
145 1 0.46 70.0 11.8798 16.7162 0 
302 1 0.46 70.0 12.3235 16.5873 0 
277 1 0.46 70.0 12.7817 16.5044 0 
243 1 0.46 70.0 13.1556 16.8888 0 
152 1 0.46 70.0 13.6274 16.8069 0 
301 1 0.46 70.0 14.1263 16.723 0 
296 1 0.46 70.0 14.6634 16.6349 0 
42 1 0.46 70.0 4.69604 17.0211 0 
194 1 0.46 70.0 5.31731 16.9731 0 
88 1 0.46 70.0 5.89503 16.958 0 
143 1 0.46 70.0 6.43818 16.962 0 
298 1 0.46 70.0 6.93814 16.9901 0 
107 1 0.46 70.0 7.4092 17.0235 0 
255 1 0.46 70.0 7.86777 17.054 0 
135 1 0.46 70.0 8.32384 17.0911 0 
157 1 0.46 70.0 8.77534 17.1379 0 
272 1 0.46 70.0 9.22051 17.1963 0 
103 1 0.46 70.0 9.78563 17.215 0 
56 1 0.46 70.0 10.2519 17.007 0 
65 1 0.46 70.0 10.6208 17.2661 0 
263 1 0.46 70.0 11.028 17.0743 0 
79 1 0.46 70.0 11.8126 17.1633 0 
237 1 0.46 70.0 12.2513 17.0364 0 
130 1 0.46 70.0 12.7012 16.9567 0 
184 1 0.46 70.0 13.5083 17.2771 0 
129 1 0.46 70.0 13.9868 17.2068 0 
9 1 0.46 70.0 14.5047 17.1361 0 
148 1 0.46 70.0 15.1032 16.9878 0 
131 1 0.46 70.0 4.52461 17.6548 0 
168 1 0.46 70.0 5.05719 17.4694 0 
146 1 0.46 70.0 5.62492 17.3944 0 
209 1 0.46 70.0 6.17769 17.3643 0 
2 1 0.46 70.0 5.93316 17.7715 0 
289 1 0.46 70.0 6.4333 17.7773 0 
5 1 0.46 70.0 6.68034 17.3832 0 
139 1 0.46 70.0 7.15189 17.4136 0 
123 1 0.46 70.0 7.61037 17.4371 0 
253 1 0.46 70.0 8.0655 17.4666 0 
271 1 0.46 70.0 8.5169 17.505 0 
274 1 0.46 70.0 8.96413 17.5542 0 
280 1 0.46 70.0 9.40893 17.5884 0 
195 1 0.46 70.0 10.2058 17.4479 0 
19 1 0.46 70.0 9.82087 17.6638 0 
64 1 0.46 70.0 10.575 17.711 0 
149 1 0.46 70.0 10.989 17.5347 0 
115 1 0.46 70.0 11.3833 17.3357 0 
244 1 0.46 70.0 11.7191 17.5998 0 
127 1 0.46 70.0 12.1552 17.4786 0 
171 1 0.46 70.0 12.6018 17.403 0 
73 1 0.46 70.0 13.0538 17.3451 0 
183 1 0.46 70.0 13.3562 17.7343 0 
262 1 0.46 70.0 13.8179 17.6748 0 
165 1 0.46 70.0 14.3099 17.613 0 
54 1 0.46 70.0 14.854 17.5379 0 
45 1 0.46 70.0 15.4429 17.4728 0 
27 1 0.46 70.0 4.34908 18.22 0 
247 1 0.46 70.0 4.92688 18.1158 0 
219 1 0.46 70.0 5.37852 17.8582 0 
207 1 0.46 70.0 5.71149 18.1893 0 
102 1 0.46 70.0 6.19851 18.178 0 
41 1 0.46 70.0 6.66208 18.1954 0 
196 1 0.46 70.0 6.90334 17.8037 0 
52 1 0.46 70.0 7.11946 18.2117 0 
15 1 0.46 70.0 7.36159 17.823 0 
66 1 0.46 70.0 7.81599 17.8464 0 
59 1 0.46 70.0 8.26734 17.8757 0 
179 1 0.46 70.0 8.71795 17.914 0 
188 1 0.46 70.0 9.17115 17.9607 0 
76 1 0.46 70.0 9.60659 18.0497 0 
126 1 0.46 70.0 10.1701 17.8998 0 
192 1 0.46 70.0 10.5099 18.154 0 
211 1 0.46 70.0 10.9359 17.9782 0 
166 1 0.46 70.0 11.3671 17.86 0 
113 1 0.46 70.0 12.007 17.9057 0 
193 1 0.46 70.0 12.451 17.8344 0 
294 1 0.46 70.0 12.7132 18.2094 0 
227 1 0.46 70.0 12.902 17.7861 0 
142 1 0.46 70.0 13.1678 18.1739 0 
282 1 0.46 70.0 13.6249 18.129 0 
182 1 0.46 70.0 14.0997 18.0774 0 
176 1 0.46 70.0 14.6074 18.0212 0 
208 1 0.46 70.0 15.1641 17.9962 0 
199 1 0.46 70.0 15.7838 18.0007 0 
292 1 0.46 70.0 4.73543 18.6474 0 
101 1 0.46 70.0 5.33684 18.4682 0 
297 1 0.46 70.0 5.94993 18.5807 0 
169 1 0.46 70.0 6.4223 18.5903 0 
121 1 0.46 70.0 6.88066 18.602 0 
34 1 0.46 70.0 7.33588 18.6161 0 
191 1 0.46 70.0 7.57326 18.2298 0 
202 1 0.46 70.0 7.78823 18.633 0 
190 1 0.46 70.0 8.02372 18.2522 0 
63 1 0.46 70.0 8.23898 18.6523 0 
284 1 0.46 70.0 8.47122 18.279 0 
20 1 0.46 70.0 8.91676 18.3156 0 
6 1 0.46 70.0 9.33569 18.398 0 
92 1 0.46 70.0 9.70472 18.6264 0 
242 1 0.46 70.0 9.97222 18.2869 0 
228 1 0.46 70.0 10.3127 18.5459 0 
162 1 0.46 70.0 10.847 18.4039 0 
99 1 0.46 70.0 11.2842 18.299 0 
39 1 0.46 70.0 11.5704 18.656 0 
181 1 0.46 70.0 11.7316 18.2432 0 
28 1 0.46 70.0 12.2614 18.2518 0 
153 1 0.46 70.0 12.0238 18.6245 0 
214 1 0.46 70.0 12.5062 18.6186 0 
124 1 0.46 70.0 12.961 18.5942 0 
91 1 0.46 70.0 13.4177 18.5651 0 
4 1 0.46 70.0 13.8811 18.5272 0 
136 1 0.46 70.0 14.366 18.4855 0 
48 1 0.46 70.0 14.8815 18.4502 0 
198 1 0.46 70.0 15.4758 18.4832 0 
241 1 0.46 70.0 4.05708 18.7507 0 
13 1 0.46 70.0 5.1703 18.9144 0 
226 1 0.46 70.0 5.66191 18.936 0 
233 1 0.46 70.0 6.17628 18.9833 0 
128 1 0.46 70.0 6.64302 18.9934 0 
49 1 0.46 70.0 7.10034 19.004 0 
82 1 0.46 70.0 7.5546 19.0165 0 
239 1 0.46 70.0 8.00652 19.0304 0 
132 1 0.46 70.0 8.69186 18.6716 0 
236 1 0.46 70.0 8.45724 19.0426 0 
36 1 0.46 70.0 8.90906 19.0405 0 
119 1 0.46 70.0 9.28597 18.837 0 
299 1 0.46 70.0 9.65969 19.0585 0 
252 1 0.46 70.0 10.0617 18.8987 0 
186 1 0.46 70.0 10.6539 18.7935 0 
57 1 0.46 70.0 10.9315 19.1095 0 
70 1 0.46 70.0 11.1252 18.7196 0 
161 1 0.46 70.0 11.3873 19.0616 0 
295 1 0.46 70.0 11.8342 19.0267 0 
40 1 0.46 70.0 12.2867 19.0075 0 
120 1 0.46 70.0 12.7464 18.9994 0 
74 1 0.46 70.0 13.203 18.9836 0 
90 1 0.46 70.0 13.6611 18.9599 0 
134 1 0.46 70.0 14.131 18.9328 0 
50 1 0.46 70.0 14.6213 18.9073 0 
163 1 0.46 70.0 15.143 18.8874 0 
33 1 0.46 70.0 15.8822 18.9203 0 
268 1 0.46 70.0 4.45115 19.1458 0 
218 1 0.46 70.0 4.92847 19.3298 0 
220 1 0.46 70.0 5.44054 19.3568 0 
110 1 0.46 70.0 5.92658 19.3679 0 
213 1 0.46 70.0 6.40665 19.3858 0 
259 1 0.46 70.0 6.86612 19.3935 0 
210 1 0.46 70.0 7.32253 19.4023 0 
293 1 0.46 70.0 7.77682 19.4119 0 
75 1 0.46 70.0 8.23014 19.4207 0 
141 1 0.46 70.0 8.68416 19.4219 0 
215 1 0.46 70.0 9.13792 19.4068 0 
216 1 0.46 70.0 9.56778 19.454 0 
159 1 0.46 70.0 10.0068 19.3564 0 
44 1 0.46 70.0 10.4075 19.1604 0 
108 1 0.46 70.0 10.6998 19.4644 0 
114 1 0.46 70.0 11.1892 19.447 0 
138 1 0.46 70.0 11.6365 19.4258 0 
290 1 0.46 70.0 12.0819 19.4064 0 
46 1 0.46 70.0 12.5313 19.3954 0 
189 1 0.46 70.0 12.9863 19.3877 0 
245 1 0.46 70.0 13.4431 19.3774 0 
197 1 0.46 70.0 13.903 19.3622 0 
256 1 0.46 70.0 14.3822 19.3491 0 
283 1 0.46 70.0 14.8887 19.3371 0 
151 1 0.46 70.0 15.4513 19.2938 0 
61 1 0.46 70.0 4.06222 19.5959 0 
47 1 0.46 70.0 4.62144 19.7338 0 
238 1 0.46 70.0 5.18061 19.7714 0 
89 1 0.46 70.0 5.69162 19.7754 0 
201 1 0.46 70.0 6.17068 19.7791 0 
12 1 0.46 70.0 6.63318 19.7851 0 
200 1 0.46 70.0 7.09094 19.7905 0 
67 1 0.46 70.0 7.54649 19.7963 0 
155 1 0.46 70.0 8.0004 19.8019 0 
30 1 0.46 70.0 8.45229 19.8048 0 
286 1 0.46 70.0 8.89777 19.8009 0 
164 1 0.46 70.0 9.32662 19.813 0 
225 1 0.46 70.0 9.76269 19.8247 0 
112 1 0.46 70.0 10.1718 19.7649 0 
72 1 0.46 70.0 10.5673 19.8462 0 
37 1 0.46 70.0 10.9885 19.8146 0 
260 1 0.46 70.0 11.4299 19.8148 0 
287 1 0.46 70.0 11.8732 19.8029 0 
53 1 0.46 70.0 12.318 19.7934 0 
62 1 0.46 70.0 12.7672 19.7869 0 
223 1 0.46 70.0 13.2212 19.7816 0 
29 1 0.46 70.0 13.6785 19.7782 0 
18 1 0.46 70.0 14.1448 19.7747 0 
288 1 0.46 70.0 14.6402 19.7715 0 
94 1 0.46 70.0 15.1866 19.753 0 
269 1 0.46 70.0 15.8366 19.6715 0 
