# LAMMPS data file for rigid bodies

303 atoms

1 atom types

0.0 	 20.0 	 xlo xhi 
0.0 	 20.0 	 ylo yhi 
-1.0 	 1.0 	 zlo zhi 

Atoms

25 1 0.46 70.0 8.96537 13.5234 0 
205 1 0.46 70.0 9.58262 13.4912 0 
100 1 0.46 70.0 10.2116 13.3473 0 
170 1 0.46 70.0 11.0822 13.5491 0 
17 1 0.46 70.0 7.73705 13.8916 0 
84 1 0.46 70.0 8.35686 13.8882 0 
31 1 0.46 70.0 8.90161 14.0772 0 
203 1 0.46 70.0 9.44389 14.0477 0 
77 1 0.46 70.0 9.99504 13.9336 0 
234 1 0.46 70.0 10.5557 13.8014 0 
158 1 0.46 70.0 10.9033 14.1981 0 
35 1 0.46 70.0 11.4228 14.0202 0 
270 1 0.46 70.0 11.9797 13.8465 0 
97 1 0.46 70.0 12.8467 14.1914 0 
275 1 0.46 70.0 7.28236 14.3757 0 
172 1 0.46 70.0 7.89142 14.4362 0 
81 1 0.46 70.0 8.43008 14.4563 0 
235 1 0.46 70.0 8.92935 14.5783 0 
156 1 0.46 70.0 9.41043 14.5597 0 
9 1 0.46 70.0 9.88954 14.4597 0 
168 1 0.46 70.0 10.3856 14.3364 0 
255 1 0.46 70.0 11.2546 14.5698 0 
298 1 0.46 70.0 11.7672 14.4537 0 
143 1 0.46 70.0 12.2948 14.3456 0 
180 1 0.46 70.0 13.2239 14.6654 0 
60 1 0.46 70.0 6.49741 14.8435 0 
177 1 0.46 70.0 7.07043 14.9053 0 
150 1 0.46 70.0 7.61628 14.9026 0 
58 1 0.46 70.0 8.1556 14.9174 0 
73 1 0.46 70.0 8.66104 14.9774 0 
208 1 0.46 70.0 9.19977 15.0108 0 
184 1 0.46 70.0 9.72442 14.9574 0 
219 1 0.46 70.0 10.2289 14.8445 0 
276 1 0.46 70.0 10.731 14.7099 0 
70 1 0.46 70.0 11.1109 15.0422 0 
303 1 0.46 70.0 11.6085 14.9619 0 
229 1 0.46 70.0 12.1141 14.8798 0 
96 1 0.46 70.0 12.6467 14.7874 0 
1 1 0.46 70.0 5.79057 15.3547 0 
254 1 0.46 70.0 6.354 15.414 0 
174 1 0.46 70.0 6.88022 15.4091 0 
244 1 0.46 70.0 7.39138 15.3841 0 
71 1 0.46 70.0 7.89618 15.358 0 
243 1 0.46 70.0 8.37554 15.3904 0 
183 1 0.46 70.0 8.83981 15.4213 0 
34 1 0.46 70.0 9.29414 15.459 0 
102 1 0.46 70.0 9.74251 15.4159 0 
2 1 0.46 70.0 10.1854 15.3177 0 
15 1 0.46 70.0 10.6245 15.1891 0 
271 1 0.46 70.0 10.9716 15.4887 0 
252 1 0.46 70.0 11.4461 15.4287 0 
147 1 0.46 70.0 11.9268 15.3687 0 
285 1 0.46 70.0 12.4217 15.3005 0 
51 1 0.46 70.0 12.9385 15.2312 0 
137 1 0.46 70.0 13.4815 15.1567 0 
93 1 0.46 70.0 14.0814 15.1515 0 
23 1 0.46 70.0 5.53244 15.908 0 
258 1 0.46 70.0 6.11587 15.9164 0 
118 1 0.46 70.0 6.66164 15.8923 0 
224 1 0.46 70.0 7.17557 15.8576 0 
193 1 0.46 70.0 7.69307 15.7985 0 
80 1 0.46 70.0 8.17257 15.8152 0 
127 1 0.46 70.0 8.63625 15.8411 0 
33 1 0.46 70.0 9.09361 15.8692 0 
13 1 0.46 70.0 9.55143 15.861 0 
49 1 0.46 70.0 10.0045 15.7928 0 
52 1 0.46 70.0 10.4534 15.6955 0 
191 1 0.46 70.0 10.8435 15.9226 0 
286 1 0.46 70.0 11.2988 15.8715 0 
215 1 0.46 70.0 11.7563 15.8299 0 
119 1 0.46 70.0 12.2228 15.7766 0 
274 1 0.46 70.0 12.7055 15.7232 0 
87 1 0.46 70.0 13.2104 15.6759 0 
199 1 0.46 70.0 13.7453 15.6338 0 
296 1 0.46 70.0 14.3917 15.7016 0 
204 1 0.46 70.0 5.29591 16.4298 0 
194 1 0.46 70.0 5.87929 16.4032 0 
106 1 0.46 70.0 6.4385 16.3539 0 
103 1 0.46 70.0 6.9544 16.3195 0 
232 1 0.46 70.0 7.49889 16.2184 0 
76 1 0.46 70.0 7.97672 16.2308 0 
211 1 0.46 70.0 8.43595 16.253 0 
99 1 0.46 70.0 8.89242 16.2761 0 
47 1 0.46 70.0 9.34868 16.2738 0 
200 1 0.46 70.0 9.80152 16.2453 0 
239 1 0.46 70.0 10.2498 16.1751 0 
82 1 0.46 70.0 10.6639 16.3284 0 
59 1 0.46 70.0 11.1181 16.2938 0 
259 1 0.46 70.0 11.5734 16.2676 0 
57 1 0.46 70.0 12.0302 16.2312 0 
161 1 0.46 70.0 12.4895 16.1877 0 
295 1 0.46 70.0 12.9658 16.1472 0 
195 1 0.46 70.0 13.4669 16.1166 0 
129 1 0.46 70.0 13.998 16.0897 0 
264 1 0.46 70.0 14.7527 16.183 0 
131 1 0.46 70.0 4.67666 16.6717 0 
279 1 0.46 70.0 6.21681 16.8032 0 
135 1 0.46 70.0 6.72405 16.7755 0 
228 1 0.46 70.0 7.2997 16.6294 0 
126 1 0.46 70.0 7.76991 16.639 0 
39 1 0.46 70.0 8.2275 16.6581 0 
186 1 0.46 70.0 8.68192 16.6763 0 
74 1 0.46 70.0 9.135 16.6765 0 
133 1 0.46 70.0 9.58529 16.6684 0 
89 1 0.46 70.0 10.0331 16.6358 0 
75 1 0.46 70.0 10.464 16.7207 0 
202 1 0.46 70.0 10.915 16.7031 0 
225 1 0.46 70.0 11.3654 16.68 0 
175 1 0.46 70.0 11.8195 16.658 0 
216 1 0.46 70.0 12.2765 16.6317 0 
114 1 0.46 70.0 12.7368 16.5968 0 
125 1 0.46 70.0 13.2166 16.5653 0 
40 1 0.46 70.0 13.7282 16.5475 0 
167 1 0.46 70.0 14.2814 16.5106 0 
152 1 0.46 70.0 14.9837 16.7234 0 
109 1 0.46 70.0 5.15075 16.978 0 
249 1 0.46 70.0 5.66128 16.8976 0 
41 1 0.46 70.0 5.99412 17.247 0 
123 1 0.46 70.0 6.4837 17.228 0 
132 1 0.46 70.0 7.10086 17.0364 0 
6 1 0.46 70.0 7.56123 17.044 0 
44 1 0.46 70.0 8.01716 17.0594 0 
260 1 0.46 70.0 8.47007 17.0733 0 
290 1 0.46 70.0 8.92083 17.075 0 
45 1 0.46 70.0 9.36919 17.0716 0 
43 1 0.46 70.0 9.81474 17.0639 0 
173 1 0.46 70.0 10.2524 17.1076 0 
155 1 0.46 70.0 10.7012 17.1028 0 
105 1 0.46 70.0 11.1503 17.0868 0 
122 1 0.46 70.0 11.6001 17.0696 0 
8 1 0.46 70.0 12.0535 17.0509 0 
7 1 0.46 70.0 12.5101 17.0276 0 
221 1 0.46 70.0 12.9727 17.0006 0 
46 1 0.46 70.0 13.457 16.9759 0 
166 1 0.46 70.0 13.975 16.9737 0 
162 1 0.46 70.0 14.497 16.9654 0 
142 1 0.46 70.0 15.3099 17.209 0 
88 1 0.46 70.0 4.73538 17.3636 0 
196 1 0.46 70.0 5.32799 17.4621 0 
238 1 0.46 70.0 5.7647 17.6591 0 
190 1 0.46 70.0 6.23993 17.678 0 
36 1 0.46 70.0 6.89011 17.4343 0 
187 1 0.46 70.0 7.34849 17.4449 0 
287 1 0.46 70.0 7.80284 17.4565 0 
37 1 0.46 70.0 8.25397 17.4658 0 
94 1 0.46 70.0 8.70387 17.4693 0 
54 1 0.46 70.0 9.15206 17.4703 0 
26 1 0.46 70.0 9.59697 17.4682 0 
104 1 0.46 70.0 10.0365 17.4942 0 
278 1 0.46 70.0 10.4831 17.4962 0 
16 1 0.46 70.0 10.9306 17.4872 0 
24 1 0.46 70.0 11.3791 17.4731 0 
164 1 0.46 70.0 11.8293 17.459 0 
257 1 0.46 70.0 12.2827 17.4435 0 
116 1 0.46 70.0 12.7394 17.4237 0 
32 1 0.46 70.0 13.2028 17.3994 0 
185 1 0.46 70.0 13.6912 17.3814 0 
111 1 0.46 70.0 14.2241 17.4138 0 
28 1 0.46 70.0 14.7721 17.3851 0 
282 1 0.46 70.0 15.5984 17.7271 0 
101 1 0.46 70.0 4.4015 17.8418 0 
121 1 0.46 70.0 4.99111 17.8977 0 
128 1 0.46 70.0 5.48424 18.0446 0 
251 1 0.46 70.0 5.98371 18.1071 0 
145 1 0.46 70.0 6.43044 18.2099 0 
236 1 0.46 70.0 6.66906 17.826 0 
246 1 0.46 70.0 7.12601 17.839 0 
144 1 0.46 70.0 7.58041 17.8477 0 
22 1 0.46 70.0 8.03273 17.8553 0 
78 1 0.46 70.0 8.48385 17.861 0 
117 1 0.46 70.0 8.93247 17.8641 0 
42 1 0.46 70.0 9.37811 17.8664 0 
27 1 0.46 70.0 9.81803 17.8807 0 
69 1 0.46 70.0 10.2626 17.8864 0 
240 1 0.46 70.0 10.7087 17.8823 0 
140 1 0.46 70.0 11.1564 17.8722 0 
206 1 0.46 70.0 11.6054 17.8598 0 
261 1 0.46 70.0 12.0565 17.8473 0 
237 1 0.46 70.0 12.5103 17.8349 0 
265 1 0.46 70.0 12.9673 17.8189 0 
55 1 0.46 70.0 13.1958 18.2131 0 
21 1 0.46 70.0 13.4299 17.7986 0 
130 1 0.46 70.0 13.6602 18.196 0 
178 1 0.46 70.0 13.9165 17.7844 0 
230 1 0.46 70.0 14.1529 18.1775 0 
181 1 0.46 70.0 14.4926 17.8443 0 
245 1 0.46 70.0 15.0344 17.8238 0 
139 1 0.46 70.0 4.06828 18.3652 0 
233 1 0.46 70.0 4.68847 18.3637 0 
293 1 0.46 70.0 5.2141 18.4477 0 
291 1 0.46 70.0 5.72211 18.5107 0 
207 1 0.46 70.0 6.18751 18.5948 0 
107 1 0.46 70.0 6.6623 18.6168 0 
267 1 0.46 70.0 6.89534 18.2286 0 
272 1 0.46 70.0 7.3535 18.2367 0 
38 1 0.46 70.0 7.12474 18.6243 0 
231 1 0.46 70.0 7.80847 18.244 0 
79 1 0.46 70.0 7.58184 18.6312 0 
165 1 0.46 70.0 8.26083 18.2498 0 
263 1 0.46 70.0 8.03597 18.6371 0 
95 1 0.46 70.0 8.71051 18.2544 0 
302 1 0.46 70.0 8.4871 18.642 0 
300 1 0.46 70.0 9.15667 18.2585 0 
14 1 0.46 70.0 8.93498 18.6468 0 
86 1 0.46 70.0 9.59806 18.2675 0 
182 1 0.46 70.0 9.37913 18.6539 0 
217 1 0.46 70.0 10.0419 18.2745 0 
247 1 0.46 70.0 9.82155 18.661 0 
98 1 0.46 70.0 10.4873 18.274 0 
294 1 0.46 70.0 10.2656 18.663 0 
280 1 0.46 70.0 10.9333 18.2669 0 
241 1 0.46 70.0 10.7103 18.6582 0 
163 1 0.46 70.0 11.1574 18.6503 0 
266 1 0.46 70.0 11.3814 18.2569 0 
250 1 0.46 70.0 11.6066 18.6412 0 
281 1 0.46 70.0 11.8314 18.2459 0 
154 1 0.46 70.0 12.2837 18.235 0 
56 1 0.46 70.0 12.0578 18.6318 0 
160 1 0.46 70.0 12.7384 18.2246 0 
65 1 0.46 70.0 12.5113 18.6227 0 
85 1 0.46 70.0 12.9675 18.614 0 
91 1 0.46 70.0 13.4262 18.606 0 
277 1 0.46 70.0 13.8944 18.5911 0 
269 1 0.46 70.0 14.3859 18.5717 0 
11 1 0.46 70.0 14.7709 18.294 0 
283 1 0.46 70.0 15.3174 18.2742 0 
29 1 0.46 70.0 15.9314 18.2526 0 
61 1 0.46 70.0 4.38136 18.8467 0 
273 1 0.46 70.0 4.94208 18.8684 0 
212 1 0.46 70.0 5.45994 18.9149 0 
68 1 0.46 70.0 5.94326 18.9814 0 
169 1 0.46 70.0 6.42642 19.0047 0 
179 1 0.46 70.0 6.89478 19.0113 0 
19 1 0.46 70.0 7.35356 19.0178 0 
124 1 0.46 70.0 7.80935 19.0233 0 
227 1 0.46 70.0 8.26207 19.028 0 
262 1 0.46 70.0 8.71157 19.0325 0 
4 1 0.46 70.0 9.1577 19.0384 0 
136 1 0.46 70.0 9.60093 19.0456 0 
176 1 0.46 70.0 10.0448 19.0494 0 
292 1 0.46 70.0 10.4894 19.0473 0 
253 1 0.46 70.0 10.9345 19.0404 0 
157 1 0.46 70.0 11.3825 19.0331 0 
188 1 0.46 70.0 11.8326 19.0255 0 
192 1 0.46 70.0 12.285 19.018 0 
64 1 0.46 70.0 12.7398 19.0108 0 
108 1 0.46 70.0 13.1972 19.004 0 
115 1 0.46 70.0 13.6586 18.9989 0 
48 1 0.46 70.0 14.1323 18.9865 0 
148 1 0.46 70.0 14.631 18.959 0 
120 1 0.46 70.0 15.0698 18.759 0 
83 1 0.46 70.0 15.6236 18.7403 0 
222 1 0.46 70.0 3.98448 19.2831 0 
10 1 0.46 70.0 4.66637 19.3059 0 
248 1 0.46 70.0 5.19894 19.3308 0 
5 1 0.46 70.0 5.69651 19.369 0 
268 1 0.46 70.0 6.1875 19.3923 0 
12 1 0.46 70.0 6.66239 19.3985 0 
141 1 0.46 70.0 7.12392 19.4044 0 
92 1 0.46 70.0 7.58127 19.4092 0 
214 1 0.46 70.0 8.03558 19.4133 0 
113 1 0.46 70.0 8.4867 19.4171 0 
288 1 0.46 70.0 8.93465 19.4215 0 
289 1 0.46 70.0 9.38 19.4273 0 
220 1 0.46 70.0 9.8234 19.433 0 
297 1 0.46 70.0 10.2682 19.4334 0 
66 1 0.46 70.0 10.7125 19.4281 0 
226 1 0.46 70.0 11.1594 19.4219 0 
63 1 0.46 70.0 11.6084 19.4163 0 
284 1 0.46 70.0 12.0596 19.4106 0 
299 1 0.46 70.0 12.5131 19.405 0 
159 1 0.46 70.0 12.9691 19.3997 0 
171 1 0.46 70.0 13.4277 19.3948 0 
90 1 0.46 70.0 13.8964 19.3906 0 
256 1 0.46 70.0 14.3882 19.3791 0 
50 1 0.46 70.0 14.9086 19.338 0 
301 1 0.46 70.0 15.4052 19.2325 0 
18 1 0.46 70.0 16.0273 19.1655 0 
3 1 0.46 70.0 4.35491 19.7237 0 
146 1 0.46 70.0 4.93373 19.7599 0 
209 1 0.46 70.0 5.45137 19.7731 0 
201 1 0.46 70.0 5.94509 19.7799 0 
67 1 0.46 70.0 6.42548 19.7856 0 
242 1 0.46 70.0 6.89294 19.7917 0 
153 1 0.46 70.0 7.35187 19.7956 0 
112 1 0.46 70.0 7.80778 19.7988 0 
138 1 0.46 70.0 8.26043 19.8017 0 
189 1 0.46 70.0 8.70978 19.8046 0 
62 1 0.46 70.0 9.15612 19.8081 0 
223 1 0.46 70.0 9.60014 19.8135 0 
110 1 0.46 70.0 10.0463 19.815 0 
213 1 0.46 70.0 10.493 19.8137 0 
218 1 0.46 70.0 10.9381 19.8081 0 
20 1 0.46 70.0 11.3855 19.8043 0 
210 1 0.46 70.0 11.8354 19.8006 0 
30 1 0.46 70.0 12.2877 19.7969 0 
72 1 0.46 70.0 12.7424 19.7932 0 
149 1 0.46 70.0 13.1998 19.7897 0 
53 1 0.46 70.0 13.6618 19.7852 0 
197 1 0.46 70.0 14.1413 19.7792 0 
134 1 0.46 70.0 14.6502 19.7731 0 
151 1 0.46 70.0 15.1858 19.752 0 
198 1 0.46 70.0 15.7434 19.6872 0 
