# LAMMPS data file for rigid bodies

303 atoms

1 atom types

0.0 	 20.0 	 xlo xhi 
0.0 	 20.0 	 ylo yhi 
-1.0 	 1.0 	 zlo zhi 

Atoms

300 1 0.46 70.0 8.40505 13.7097 0 
163 1 0.46 70.0 9.13826 13.7434 0 
101 1 0.46 70.0 9.68787 13.4743 0 
24 1 0.46 70.0 10.6148 13.5271 0 
127 1 0.46 70.0 11.2401 13.4589 0 
278 1 0.46 70.0 7.84141 14.0174 0 
250 1 0.46 70.0 8.75527 14.1454 0 
160 1 0.46 70.0 9.60725 14.0811 0 
16 1 0.46 70.0 10.1228 13.8685 0 
71 1 0.46 70.0 10.6271 14.0988 0 
121 1 0.46 70.0 11.1736 14.0182 0 
15 1 0.46 70.0 11.7699 13.8586 0 
179 1 0.46 70.0 12.6876 14.1791 0 
21 1 0.46 70.0 7.32293 14.3263 0 
13 1 0.46 70.0 7.78041 14.658 0 
194 1 0.46 70.0 8.26597 14.3872 0 
129 1 0.46 70.0 9.18911 14.4299 0 
4 1 0.46 70.0 9.65625 14.6041 0 
50 1 0.46 70.0 10.1171 14.4155 0 
96 1 0.46 70.0 10.5816 14.5993 0 
106 1 0.46 70.0 11.0787 14.5292 0 
134 1 0.46 70.0 11.5942 14.4249 0 
245 1 0.46 70.0 12.1315 14.3236 0 
89 1 0.46 70.0 6.36868 14.9507 0 
1 1 0.46 70.0 6.87655 14.6841 0 
266 1 0.46 70.0 7.35621 14.9944 0 
158 1 0.46 70.0 8.23225 14.929 0 
11 1 0.46 70.0 8.71708 14.6843 0 
241 1 0.46 70.0 9.15396 14.9512 0 
265 1 0.46 70.0 9.61412 15.0647 0 
44 1 0.46 70.0 10.0843 14.952 0 
222 1 0.46 70.0 10.5379 15.0568 0 
2 1 0.46 70.0 11.0007 15.012 0 
156 1 0.46 70.0 11.4722 14.9372 0 
110 1 0.46 70.0 11.9614 14.8588 0 
9 1 0.46 70.0 12.4796 14.7742 0 
294 1 0.46 70.0 13.0364 14.6754 0 
84 1 0.46 70.0 13.6708 14.7868 0 
28 1 0.46 70.0 5.81109 15.2293 0 
27 1 0.46 70.0 6.41306 15.5179 0 
280 1 0.46 70.0 6.90747 15.2766 0 
118 1 0.46 70.0 7.81729 15.2227 0 
261 1 0.46 70.0 8.28923 15.462 0 
295 1 0.46 70.0 8.6554 15.176 0 
236 1 0.46 70.0 9.04015 15.4215 0 
270 1 0.46 70.0 9.4868 15.503 0 
125 1 0.46 70.0 9.94087 15.4422 0 
128 1 0.46 70.0 10.3935 15.4886 0 
284 1 0.46 70.0 10.851 15.4656 0 
130 1 0.46 70.0 11.3083 15.421 0 
5 1 0.46 70.0 11.7699 15.3612 0 
167 1 0.46 70.0 12.2458 15.2967 0 
41 1 0.46 70.0 12.7426 15.2335 0 
153 1 0.46 70.0 13.2668 15.1895 0 
29 1 0.46 70.0 13.9674 15.3458 0 
53 1 0.46 70.0 5.40989 15.946 0 
109 1 0.46 70.0 5.95088 15.7764 0 
20 1 0.46 70.0 6.84749 15.804 0 
74 1 0.46 70.0 7.37124 15.558 0 
209 1 0.46 70.0 7.84637 15.7069 0 
63 1 0.46 70.0 8.27053 15.9245 0 
42 1 0.46 70.0 8.73125 15.7617 0 
62 1 0.46 70.0 9.21679 15.8722 0 
228 1 0.46 70.0 9.7259 15.8906 0 
201 1 0.46 70.0 10.1828 15.8925 0 
216 1 0.46 70.0 10.6429 15.8849 0 
233 1 0.46 70.0 11.102 15.8684 0 
267 1 0.46 70.0 11.5602 15.8324 0 
120 1 0.46 70.0 12.0203 15.7848 0 
244 1 0.46 70.0 12.4917 15.7318 0 
151 1 0.46 70.0 12.9832 15.6871 0 
104 1 0.46 70.0 13.5048 15.6471 0 
298 1 0.46 70.0 14.3827 15.7792 0 
60 1 0.46 70.0 4.91 16.3489 0 
196 1 0.46 70.0 5.95038 16.2956 0 
299 1 0.46 70.0 6.42061 16.1002 0 
78 1 0.46 70.0 6.83512 16.3651 0 
93 1 0.46 70.0 7.24928 16.046 0 
10 1 0.46 70.0 7.69764 16.1407 0 
190 1 0.46 70.0 8.10573 16.3501 0 
34 1 0.46 70.0 8.63117 16.2099 0 
218 1 0.46 70.0 9.07593 16.2991 0 
288 1 0.46 70.0 9.52801 16.2972 0 
133 1 0.46 70.0 9.98206 16.3002 0 
36 1 0.46 70.0 10.4356 16.2915 0 
75 1 0.46 70.0 10.89 16.2791 0 
57 1 0.46 70.0 11.3467 16.2634 0 
77 1 0.46 70.0 11.8048 16.2375 0 
256 1 0.46 70.0 12.2673 16.1976 0 
69 1 0.46 70.0 12.7457 16.1503 0 
119 1 0.46 70.0 13.2593 16.1068 0 
180 1 0.46 70.0 13.846 16.016 0 
242 1 0.46 70.0 14.3696 16.3553 0 
155 1 0.46 70.0 14.9207 16.2219 0 
224 1 0.46 70.0 5.44888 16.5416 0 
45 1 0.46 70.0 5.9245 16.7821 0 
25 1 0.46 70.0 6.4168 16.6603 0 
122 1 0.46 70.0 6.85558 16.8734 0 
169 1 0.46 70.0 7.27694 16.5237 0 
56 1 0.46 70.0 7.72897 16.6003 0 
170 1 0.46 70.0 8.45376 16.6285 0 
3 1 0.46 70.0 8.8887 16.7046 0 
86 1 0.46 70.0 9.33245 16.7048 0 
195 1 0.46 70.0 9.77686 16.7024 0 
144 1 0.46 70.0 10.224 16.6941 0 
254 1 0.46 70.0 10.6728 16.6833 0 
200 1 0.46 70.0 11.1236 16.6724 0 
48 1 0.46 70.0 11.5768 16.6593 0 
65 1 0.46 70.0 12.0321 16.6373 0 
139 1 0.46 70.0 12.489 16.6077 0 
198 1 0.46 70.0 12.9471 16.571 0 
252 1 0.46 70.0 13.4135 16.5458 0 
138 1 0.46 70.0 13.8856 16.507 0 
231 1 0.46 70.0 14.6885 16.8191 0 
205 1 0.46 70.0 15.2697 16.7837 0 
302 1 0.46 70.0 4.76648 16.9445 0 
221 1 0.46 70.0 5.31394 17.061 0 
220 1 0.46 70.0 5.78341 17.2355 0 
92 1 0.46 70.0 6.26266 17.1621 0 
202 1 0.46 70.0 6.69344 17.3108 0 
264 1 0.46 70.0 7.3027 16.9817 0 
17 1 0.46 70.0 7.75235 17.0456 0 
6 1 0.46 70.0 8.19647 16.9944 0 
35 1 0.46 70.0 8.64451 17.0782 0 
248 1 0.46 70.0 9.11036 17.0994 0 
136 1 0.46 70.0 9.56147 17.0994 0 
137 1 0.46 70.0 10.0098 17.0945 0 
80 1 0.46 70.0 10.457 17.0857 0 
291 1 0.46 70.0 10.9041 17.0753 0 
204 1 0.46 70.0 11.3534 17.0649 0 
183 1 0.46 70.0 11.805 17.0537 0 
215 1 0.46 70.0 12.2591 17.0356 0 
26 1 0.46 70.0 12.7159 17.0136 0 
97 1 0.46 70.0 13.175 16.9875 0 
232 1 0.46 70.0 13.6566 16.963 0 
49 1 0.46 70.0 14.1729 16.9158 0 
172 1 0.46 70.0 14.9749 17.3041 0 
114 1 0.46 70.0 4.37084 17.4585 0 
263 1 0.46 70.0 4.97163 17.5037 0 
185 1 0.46 70.0 5.48393 17.6175 0 
132 1 0.46 70.0 5.99381 17.6628 0 
142 1 0.46 70.0 6.44963 17.7017 0 
175 1 0.46 70.0 7.13565 17.4059 0 
226 1 0.46 70.0 7.58227 17.4552 0 
246 1 0.46 70.0 8.03044 17.4217 0 
217 1 0.46 70.0 8.46898 17.4841 0 
174 1 0.46 70.0 8.90999 17.4919 0 
277 1 0.46 70.0 9.35313 17.4931 0 
165 1 0.46 70.0 9.79689 17.4911 0 
52 1 0.46 70.0 10.2416 17.4853 0 
67 1 0.46 70.0 10.6863 17.4763 0 
91 1 0.46 70.0 11.1329 17.4662 0 
210 1 0.46 70.0 11.582 17.4558 0 
66 1 0.46 70.0 12.0335 17.4454 0 
208 1 0.46 70.0 12.4875 17.4314 0 
124 1 0.46 70.0 12.9447 17.4125 0 
159 1 0.46 70.0 13.4121 17.3908 0 
211 1 0.46 70.0 13.9091 17.3594 0 
193 1 0.46 70.0 14.1485 17.7596 0 
237 1 0.46 70.0 14.4418 17.3455 0 
186 1 0.46 70.0 15.6031 17.3599 0 
251 1 0.46 70.0 4.66056 17.967 0 
7 1 0.46 70.0 5.21225 18.027 0 
192 1 0.46 70.0 5.72958 18.0759 0 
123 1 0.46 70.0 6.20732 18.1198 0 
301 1 0.46 70.0 6.66063 18.185 0 
23 1 0.46 70.0 6.89637 17.7946 0 
55 1 0.46 70.0 7.34944 17.8376 0 
94 1 0.46 70.0 7.80579 17.8473 0 
238 1 0.46 70.0 8.24872 17.8664 0 
154 1 0.46 70.0 8.69517 17.8805 0 
143 1 0.46 70.0 9.13988 17.8849 0 
73 1 0.46 70.0 9.58279 17.8852 0 
271 1 0.46 70.0 10.026 17.8819 0 
8 1 0.46 70.0 10.4696 17.8749 0 
274 1 0.46 70.0 10.9136 17.8655 0 
87 1 0.46 70.0 11.3604 17.8556 0 
199 1 0.46 70.0 11.8099 17.8458 0 
126 1 0.46 70.0 12.2622 17.8356 0 
227 1 0.46 70.0 12.7171 17.8247 0 
282 1 0.46 70.0 12.9474 18.2162 0 
61 1 0.46 70.0 13.1755 17.8088 0 
31 1 0.46 70.0 13.6485 17.7852 0 
289 1 0.46 70.0 13.4067 18.2039 0 
103 1 0.46 70.0 13.8795 18.1826 0 
303 1 0.46 70.0 14.3779 18.162 0 
285 1 0.46 70.0 14.7035 17.7988 0 
19 1 0.46 70.0 15.2382 17.7947 0 
83 1 0.46 70.0 15.6437 18.1745 0 
102 1 0.46 70.0 4.29473 18.3875 0 
206 1 0.46 70.0 4.93589 18.4437 0 
100 1 0.46 70.0 5.47013 18.4866 0 
184 1 0.46 70.0 5.96364 18.5276 0 
181 1 0.46 70.0 6.42591 18.5779 0 
255 1 0.46 70.0 6.8839 18.6094 0 
135 1 0.46 70.0 7.11642 18.2226 0 
262 1 0.46 70.0 7.34145 18.622 0 
113 1 0.46 70.0 7.57285 18.2358 0 
249 1 0.46 70.0 7.79567 18.6348 0 
283 1 0.46 70.0 8.02352 18.251 0 
33 1 0.46 70.0 8.24776 18.6464 0 
223 1 0.46 70.0 8.47272 18.2638 0 
247 1 0.46 70.0 8.69799 18.6552 0 
293 1 0.46 70.0 8.92099 18.2721 0 
276 1 0.46 70.0 9.14583 18.661 0 
105 1 0.46 70.0 9.36636 18.2753 0 
145 1 0.46 70.0 9.5901 18.664 0 
203 1 0.46 70.0 9.80913 18.2751 0 
150 1 0.46 70.0 10.0333 18.6627 0 
117 1 0.46 70.0 10.2518 18.2706 0 
207 1 0.46 70.0 10.4762 18.6567 0 
116 1 0.46 70.0 10.6945 18.2623 0 
292 1 0.46 70.0 10.9193 18.6478 0 
88 1 0.46 70.0 11.1395 18.253 0 
112 1 0.46 70.0 11.3653 18.6391 0 
40 1 0.46 70.0 11.5873 18.2437 0 
47 1 0.46 70.0 11.8142 18.6309 0 
257 1 0.46 70.0 12.0378 18.2345 0 
51 1 0.46 70.0 12.2658 18.6228 0 
90 1 0.46 70.0 12.4913 18.2252 0 
176 1 0.46 70.0 12.7201 18.615 0 
189 1 0.46 70.0 13.1773 18.6076 0 
275 1 0.46 70.0 13.6371 18.6001 0 
157 1 0.46 70.0 14.1108 18.582 0 
235 1 0.46 70.0 14.6095 18.5586 0 
148 1 0.46 70.0 15.0057 18.2711 0 
81 1 0.46 70.0 3.99661 18.9172 0 
229 1 0.46 70.0 4.64957 18.8552 0 
58 1 0.46 70.0 5.20717 18.8988 0 
32 1 0.46 70.0 5.71369 18.9322 0 
46 1 0.46 70.0 6.19025 18.9717 0 
268 1 0.46 70.0 6.65193 18.9981 0 
212 1 0.46 70.0 7.11062 19.0085 0 
243 1 0.46 70.0 7.56686 19.0189 0 
140 1 0.46 70.0 8.02099 19.0287 0 
12 1 0.46 70.0 8.47314 19.0369 0 
166 1 0.46 70.0 8.92297 19.0432 0 
240 1 0.46 70.0 9.36999 19.0479 0 
234 1 0.46 70.0 9.81358 19.0504 0 
141 1 0.46 70.0 10.2567 19.0477 0 
95 1 0.46 70.0 10.6991 19.04 0 
258 1 0.46 70.0 11.144 19.032 0 
152 1 0.46 70.0 11.5913 19.0247 0 
173 1 0.46 70.0 12.0413 19.0179 0 
64 1 0.46 70.0 12.494 19.0113 0 
99 1 0.46 70.0 12.9496 19.0051 0 
18 1 0.46 70.0 13.408 18.9993 0 
259 1 0.46 70.0 13.8743 18.9938 0 
191 1 0.46 70.0 14.3643 18.9773 0 
171 1 0.46 70.0 14.8985 18.9198 0 
182 1 0.46 70.0 15.3587 18.6885 0 
76 1 0.46 70.0 15.9776 18.6882 0 
225 1 0.46 70.0 4.40963 19.3105 0 
70 1 0.46 70.0 4.95657 19.3226 0 
85 1 0.46 70.0 5.46708 19.3451 0 
115 1 0.46 70.0 5.95205 19.3663 0 
147 1 0.46 70.0 6.42021 19.3889 0 
131 1 0.46 70.0 6.87991 19.3965 0 
187 1 0.46 70.0 7.33748 19.4043 0 
290 1 0.46 70.0 7.79307 19.4119 0 
197 1 0.46 70.0 8.2467 19.4185 0 
188 1 0.46 70.0 8.69808 19.4241 0 
43 1 0.46 70.0 9.14669 19.4286 0 
149 1 0.46 70.0 9.5919 19.4334 0 
22 1 0.46 70.0 10.0366 19.434 0 
59 1 0.46 70.0 10.4805 19.4297 0 
79 1 0.46 70.0 10.9237 19.4221 0 
68 1 0.46 70.0 11.3695 19.4161 0 
230 1 0.46 70.0 11.8179 19.4106 0 
213 1 0.46 70.0 12.269 19.4054 0 
219 1 0.46 70.0 12.723 19.4005 0 
107 1 0.46 70.0 13.18 19.3958 0 
168 1 0.46 70.0 13.6409 19.3914 0 
273 1 0.46 70.0 14.1202 19.3843 0 
281 1 0.46 70.0 14.6302 19.3624 0 
297 1 0.46 70.0 15.1549 19.3243 0 
38 1 0.46 70.0 15.6601 19.1709 0 
272 1 0.46 70.0 4.01166 19.671 0 
146 1 0.46 70.0 4.68156 19.756 0 
253 1 0.46 70.0 5.21809 19.7703 0 
279 1 0.46 70.0 5.71483 19.7744 0 
111 1 0.46 70.0 6.18685 19.7813 0 
164 1 0.46 70.0 6.64911 19.7869 0 
214 1 0.46 70.0 7.1076 19.7918 0 
98 1 0.46 70.0 7.5643 19.7967 0 
37 1 0.46 70.0 8.01917 19.8012 0 
178 1 0.46 70.0 8.47198 19.8052 0 
54 1 0.46 70.0 8.92232 19.8087 0 
82 1 0.46 70.0 9.36987 19.812 0 
108 1 0.46 70.0 9.81495 19.8153 0 
177 1 0.46 70.0 10.2602 19.8144 0 
286 1 0.46 70.0 10.7037 19.8094 0 
287 1 0.46 70.0 11.1485 19.8049 0 
162 1 0.46 70.0 11.5955 19.8011 0 
30 1 0.46 70.0 12.0451 19.7974 0 
72 1 0.46 70.0 12.4975 19.7939 0 
14 1 0.46 70.0 12.9529 19.7906 0 
260 1 0.46 70.0 13.4113 19.7872 0 
239 1 0.46 70.0 13.8798 19.7816 0 
39 1 0.46 70.0 14.3704 19.7758 0 
161 1 0.46 70.0 14.8897 19.771 0 
296 1 0.46 70.0 15.4484 19.7361 0 
269 1 0.46 70.0 16.0217 19.6219 0 
