# LAMMPS data file for rigid bodies

303 atoms

1 atom types

0.0 	 20.0 	 xlo xhi 
0.0 	 20.0 	 ylo yhi 
-1.0 	 1.0 	 zlo zhi 

Atoms

109 1 0.46 70.0 8.74958 13.6734 0 
298 1 0.46 70.0 9.37817 13.5534 0 
222 1 0.46 70.0 9.977 13.5627 0 
13 1 0.46 70.0 10.5762 13.5556 0 
21 1 0.46 70.0 11.1894 13.5078 0 
121 1 0.46 70.0 7.57841 14.1641 0 
84 1 0.46 70.0 8.14523 13.8412 0 
250 1 0.46 70.0 9.14705 14.0928 0 
252 1 0.46 70.0 9.67918 14.0847 0 
28 1 0.46 70.0 10.2018 14.0976 0 
266 1 0.46 70.0 10.7128 14.0972 0 
129 1 0.46 70.0 11.2285 14.0701 0 
101 1 0.46 70.0 11.7546 13.9076 0 
156 1 0.46 70.0 12.3589 13.9261 0 
127 1 0.46 70.0 6.99803 14.3479 0 
110 1 0.46 70.0 8.07577 14.4229 0 
104 1 0.46 70.0 8.58864 14.2579 0 
9 1 0.46 70.0 8.99153 14.5839 0 
138 1 0.46 70.0 9.4916 14.5715 0 
69 1 0.46 70.0 9.98932 14.581 0 
196 1 0.46 70.0 10.487 14.5822 0 
180 1 0.46 70.0 10.9856 14.5655 0 
302 1 0.46 70.0 11.4978 14.5176 0 
11 1 0.46 70.0 12.0125 14.4392 0 
163 1 0.46 70.0 12.5788 14.4659 0 
179 1 0.46 70.0 13.1642 14.4333 0 
270 1 0.46 70.0 6.36173 14.8794 0 
50 1 0.46 70.0 6.94284 14.9085 0 
41 1 0.46 70.0 7.49636 14.7592 0 
5 1 0.46 70.0 7.98646 14.9207 0 
120 1 0.46 70.0 8.48005 14.8248 0 
198 1 0.46 70.0 8.90572 15.0446 0 
303 1 0.46 70.0 9.37508 15.0397 0 
102 1 0.46 70.0 9.83666 15.0442 0 
186 1 0.46 70.0 10.3024 15.0415 0 
78 1 0.46 70.0 10.7736 15.0262 0 
60 1 0.46 70.0 11.259 14.9975 0 
42 1 0.46 70.0 11.7571 14.9547 0 
218 1 0.46 70.0 12.27 14.9186 0 
34 1 0.46 70.0 12.8521 14.9537 0 
2 1 0.46 70.0 13.4634 14.9544 0 
158 1 0.46 70.0 5.64664 15.3922 0 
125 1 0.46 70.0 6.21028 15.4508 0 
232 1 0.46 70.0 6.73828 15.4112 0 
133 1 0.46 70.0 7.31682 15.2837 0 
256 1 0.46 70.0 7.80063 15.362 0 
200 1 0.46 70.0 8.29071 15.3392 0 
245 1 0.46 70.0 8.73079 15.4663 0 
65 1 0.46 70.0 9.19041 15.4755 0 
192 1 0.46 70.0 9.6487 15.4811 0 
285 1 0.46 70.0 10.1076 15.4804 0 
7 1 0.46 70.0 10.5673 15.4699 0 
122 1 0.46 70.0 11.0296 15.4477 0 
170 1 0.46 70.0 11.5037 15.4191 0 
288 1 0.46 70.0 11.989 15.3866 0 
241 1 0.46 70.0 12.4948 15.3637 0 
128 1 0.46 70.0 13.0393 15.4451 0 
15 1 0.46 70.0 13.5582 15.4934 0 
153 1 0.46 70.0 14.11 15.3616 0 
27 1 0.46 70.0 5.35386 15.9439 0 
24 1 0.46 70.0 5.9439 15.9531 0 
201 1 0.46 70.0 6.49212 15.9263 0 
143 1 0.46 70.0 7.10441 15.7434 0 
36 1 0.46 70.0 7.58615 15.7852 0 
210 1 0.46 70.0 8.06184 15.7975 0 
281 1 0.46 70.0 8.51379 15.8669 0 
275 1 0.46 70.0 8.97259 15.8848 0 
289 1 0.46 70.0 9.42899 15.8926 0 
269 1 0.46 70.0 9.88496 15.896 0 
225 1 0.46 70.0 10.3412 15.8917 0 
301 1 0.46 70.0 10.7978 15.8786 0 
264 1 0.46 70.0 11.2562 15.8589 0 
154 1 0.46 70.0 11.721 15.8357 0 
80 1 0.46 70.0 12.1967 15.8106 0 
293 1 0.46 70.0 12.6896 15.8025 0 
48 1 0.46 70.0 13.2639 15.9461 0 
75 1 0.46 70.0 13.8142 15.9544 0 
211 1 0.46 70.0 14.3876 15.9297 0 
216 1 0.46 70.0 5.66624 16.4402 0 
277 1 0.46 70.0 6.2294 16.4064 0 
105 1 0.46 70.0 6.90643 16.1691 0 
199 1 0.46 70.0 7.38009 16.2053 0 
257 1 0.46 70.0 7.84111 16.2258 0 
47 1 0.46 70.0 8.29586 16.2671 0 
297 1 0.46 70.0 8.75208 16.2852 0 
71 1 0.46 70.0 9.20622 16.2927 0 
29 1 0.46 70.0 9.65802 16.2955 0 
219 1 0.46 70.0 10.1098 16.2964 0 
39 1 0.46 70.0 10.5621 16.293 0 
33 1 0.46 70.0 11.0151 16.2816 0 
137 1 0.46 70.0 11.4703 16.2647 0 
67 1 0.46 70.0 11.9281 16.2462 0 
150 1 0.46 70.0 12.3909 16.2298 0 
8 1 0.46 70.0 12.8719 16.2236 0 
183 1 0.46 70.0 13.4954 16.4146 0 
227 1 0.46 70.0 14.0008 16.4391 0 
237 1 0.46 70.0 15.0331 16.2268 0 
194 1 0.46 70.0 5.04937 16.4616 0 
267 1 0.46 70.0 5.97845 16.859 0 
23 1 0.46 70.0 6.6817 16.5693 0 
240 1 0.46 70.0 7.16059 16.6135 0 
88 1 0.46 70.0 7.62089 16.6375 0 
59 1 0.46 70.0 8.07634 16.6656 0 
16 1 0.46 70.0 8.53078 16.6819 0 
213 1 0.46 70.0 8.98277 16.6888 0 
151 1 0.46 70.0 9.43251 16.6927 0 
272 1 0.46 70.0 9.88189 16.6948 0 
280 1 0.46 70.0 10.3309 16.6948 0 
197 1 0.46 70.0 10.7799 16.6916 0 
276 1 0.46 70.0 11.2308 16.6818 0 
271 1 0.46 70.0 11.684 16.6677 0 
160 1 0.46 70.0 12.1402 16.6524 0 
292 1 0.46 70.0 12.5998 16.6389 0 
52 1 0.46 70.0 13.0834 16.6277 0 
139 1 0.46 70.0 14.5327 16.4884 0 
193 1 0.46 70.0 14.957 16.8632 0 
209 1 0.46 70.0 4.7393 16.9834 0 
220 1 0.46 70.0 5.38705 16.9208 0 
136 1 0.46 70.0 5.74197 17.291 0 
70 1 0.46 70.0 6.45331 16.9671 0 
255 1 0.46 70.0 6.93391 17.0128 0 
268 1 0.46 70.0 7.39742 17.0382 0 
82 1 0.46 70.0 7.85365 17.0611 0 
265 1 0.46 70.0 8.30762 17.0745 0 
294 1 0.46 70.0 8.75931 17.0819 0 
58 1 0.46 70.0 9.20897 17.0875 0 
20 1 0.46 70.0 9.65659 17.0912 0 
53 1 0.46 70.0 10.104 17.0923 0 
299 1 0.46 70.0 10.5514 17.0905 0 
295 1 0.46 70.0 10.9984 17.0864 0 
247 1 0.46 70.0 11.447 17.0787 0 
223 1 0.46 70.0 11.8984 17.0675 0 
106 1 0.46 70.0 12.3531 17.0553 0 
134 1 0.46 70.0 12.8113 17.0445 0 
152 1 0.46 70.0 13.2761 17.0395 0 
99 1 0.46 70.0 13.7218 16.8974 0 
235 1 0.46 70.0 14.2351 16.9103 0 
31 1 0.46 70.0 14.5737 17.2905 0 
202 1 0.46 70.0 4.40015 17.5288 0 
93 1 0.46 70.0 5.10998 17.4016 0 
113 1 0.46 70.0 5.51311 17.7083 0 
238 1 0.46 70.0 6.00419 17.7689 0 
181 1 0.46 70.0 6.22857 17.3676 0 
234 1 0.46 70.0 6.70697 17.411 0 
300 1 0.46 70.0 7.17143 17.4351 0 
96 1 0.46 70.0 7.62869 17.4534 0 
130 1 0.46 70.0 8.08311 17.4643 0 
144 1 0.46 70.0 8.53537 17.4727 0 
159 1 0.46 70.0 8.98516 17.4794 0 
19 1 0.46 70.0 9.43238 17.4848 0 
172 1 0.46 70.0 9.87895 17.4875 0 
261 1 0.46 70.0 10.3252 17.4871 0 
56 1 0.46 70.0 10.7713 17.4837 0 
62 1 0.46 70.0 11.2194 17.4778 0 
178 1 0.46 70.0 11.6693 17.47 0 
233 1 0.46 70.0 12.1214 17.4604 0 
284 1 0.46 70.0 12.577 17.4506 0 
10 1 0.46 70.0 13.0369 17.4428 0 
119 1 0.46 70.0 13.5351 17.4148 0 
107 1 0.46 70.0 14.0119 17.3525 0 
87 1 0.46 70.0 14.2856 17.7662 0 
244 1 0.46 70.0 14.8163 17.7479 0 
155 1 0.46 70.0 15.2158 17.3608 0 
175 1 0.46 70.0 4.83172 17.879 0 
229 1 0.46 70.0 5.28032 18.1167 0 
111 1 0.46 70.0 5.77326 18.172 0 
149 1 0.46 70.0 6.48004 17.8092 0 
89 1 0.46 70.0 6.24999 18.2065 0 
6 1 0.46 70.0 6.94407 17.83 0 
278 1 0.46 70.0 7.40185 17.843 0 
167 1 0.46 70.0 7.85725 17.8525 0 
97 1 0.46 70.0 8.3106 17.8613 0 
291 1 0.46 70.0 8.76135 17.8687 0 
124 1 0.46 70.0 9.20946 17.8751 0 
171 1 0.46 70.0 9.65518 17.8799 0 
182 1 0.46 70.0 10.1008 17.8812 0 
169 1 0.46 70.0 10.5465 17.879 0 
118 1 0.46 70.0 10.9929 17.8737 0 
4 1 0.46 70.0 11.4419 17.8669 0 
217 1 0.46 70.0 11.8936 17.8587 0 
165 1 0.46 70.0 12.3481 17.8496 0 
26 1 0.46 70.0 12.8059 17.841 0 
57 1 0.46 70.0 13.2788 17.8284 0 
236 1 0.46 70.0 13.7708 17.8075 0 
215 1 0.46 70.0 13.5122 18.219 0 
77 1 0.46 70.0 14.0137 18.1956 0 
72 1 0.46 70.0 14.5449 18.211 0 
260 1 0.46 70.0 15.0752 18.2022 0 
103 1 0.46 70.0 15.5098 17.8578 0 
132 1 0.46 70.0 4.39579 18.2639 0 
184 1 0.46 70.0 4.94242 18.4601 0 
190 1 0.46 70.0 5.50212 18.5638 0 
25 1 0.46 70.0 6.0049 18.5997 0 
221 1 0.46 70.0 6.48107 18.6158 0 
44 1 0.46 70.0 6.71493 18.2236 0 
94 1 0.46 70.0 6.9447 18.6208 0 
246 1 0.46 70.0 7.17384 18.2318 0 
35 1 0.46 70.0 7.40278 18.6275 0 
3 1 0.46 70.0 7.6306 18.2402 0 
174 1 0.46 70.0 7.85826 18.6345 0 
145 1 0.46 70.0 8.08488 18.2482 0 
204 1 0.46 70.0 8.31113 18.6413 0 
286 1 0.46 70.0 8.53666 18.2557 0 
173 1 0.46 70.0 8.76134 18.648 0 
274 1 0.46 70.0 8.98562 18.2627 0 
157 1 0.46 70.0 9.2088 18.6547 0 
61 1 0.46 70.0 9.43153 18.269 0 
206 1 0.46 70.0 9.65349 18.6605 0 
81 1 0.46 70.0 9.87684 18.2724 0 
100 1 0.46 70.0 10.0984 18.6619 0 
263 1 0.46 70.0 10.322 18.2718 0 
185 1 0.46 70.0 10.5435 18.6589 0 
248 1 0.46 70.0 10.7672 18.2673 0 
224 1 0.46 70.0 10.9893 18.6527 0 
63 1 0.46 70.0 11.2149 18.261 0 
45 1 0.46 70.0 11.4382 18.6462 0 
135 1 0.46 70.0 11.6655 18.2538 0 
228 1 0.46 70.0 11.89 18.6393 0 
254 1 0.46 70.0 12.1188 18.2458 0 
195 1 0.46 70.0 12.3446 18.632 0 
116 1 0.46 70.0 12.5751 18.2374 0 
91 1 0.46 70.0 12.8021 18.6244 0 
66 1 0.46 70.0 13.035 18.2292 0 
126 1 0.46 70.0 13.2651 18.6174 0 
49 1 0.46 70.0 13.7466 18.6091 0 
90 1 0.46 70.0 14.2442 18.5921 0 
239 1 0.46 70.0 15.3457 18.6621 0 
205 1 0.46 70.0 15.8322 18.3861 0 
146 1 0.46 70.0 4.06481 18.79 0 
32 1 0.46 70.0 4.65727 18.8621 0 
1 1 0.46 70.0 5.21083 18.9323 0 
74 1 0.46 70.0 5.74588 18.9852 0 
17 1 0.46 70.0 6.2405 19.0054 0 
117 1 0.46 70.0 6.7141 19.0101 0 
142 1 0.46 70.0 7.17381 19.015 0 
73 1 0.46 70.0 7.63051 19.0206 0 
141 1 0.46 70.0 8.08449 19.0263 0 
258 1 0.46 70.0 8.53572 19.032 0 
189 1 0.46 70.0 8.98417 19.0382 0 
279 1 0.46 70.0 9.42944 19.0451 0 
283 1 0.46 70.0 9.87448 19.0488 0 
55 1 0.46 70.0 10.3196 19.0479 0 
86 1 0.46 70.0 10.7644 19.0424 0 
262 1 0.46 70.0 11.2121 19.0362 0 
140 1 0.46 70.0 11.6624 19.0304 0 
203 1 0.46 70.0 12.1155 19.0244 0 
112 1 0.46 70.0 12.5713 19.0181 0 
79 1 0.46 70.0 13.0297 19.0114 0 
51 1 0.46 70.0 13.4949 19.0069 0 
40 1 0.46 70.0 13.9743 19.0049 0 
76 1 0.46 70.0 14.4662 18.9927 0 
242 1 0.46 70.0 14.8202 18.6797 0 
38 1 0.46 70.0 15.7609 19.068 0 
253 1 0.46 70.0 4.38073 19.2969 0 
114 1 0.46 70.0 4.94782 19.3385 0 
92 1 0.46 70.0 5.47954 19.3665 0 
226 1 0.46 70.0 5.99216 19.3912 0 
249 1 0.46 70.0 6.47791 19.398 0 
166 1 0.46 70.0 6.9438 19.4028 0 
12 1 0.46 70.0 7.40165 19.4072 0 
108 1 0.46 70.0 7.85679 19.4116 0 
22 1 0.46 70.0 8.30914 19.416 0 
168 1 0.46 70.0 8.75875 19.4206 0 
230 1 0.46 70.0 9.20583 19.4264 0 
46 1 0.46 70.0 9.65035 19.4323 0 
187 1 0.46 70.0 10.0962 19.4333 0 
212 1 0.46 70.0 10.542 19.4304 0 
243 1 0.46 70.0 10.9877 19.4241 0 
161 1 0.46 70.0 11.4364 19.4192 0 
188 1 0.46 70.0 11.8879 19.4145 0 
207 1 0.46 70.0 12.3422 19.4097 0 
287 1 0.46 70.0 12.7991 19.4047 0 
176 1 0.46 70.0 13.2584 19.3997 0 
18 1 0.46 70.0 13.7278 19.3969 0 
282 1 0.46 70.0 14.217 19.3946 0 
208 1 0.46 70.0 14.7424 19.3586 0 
231 1 0.46 70.0 15.1909 19.1698 0 
115 1 0.46 70.0 3.99545 19.6682 0 
251 1 0.46 70.0 4.66433 19.7539 0 
85 1 0.46 70.0 5.22367 19.7717 0 
123 1 0.46 70.0 5.74138 19.7766 0 
164 1 0.46 70.0 6.23474 19.7834 0 
131 1 0.46 70.0 6.71076 19.7903 0 
37 1 0.46 70.0 7.17106 19.7944 0 
54 1 0.46 70.0 7.62781 19.7975 0 
162 1 0.46 70.0 8.08143 19.8006 0 
259 1 0.46 70.0 8.53202 19.8038 0 
14 1 0.46 70.0 8.97962 19.8072 0 
64 1 0.46 70.0 9.42455 19.8129 0 
147 1 0.46 70.0 9.87132 19.8146 0 
214 1 0.46 70.0 10.3183 19.8141 0 
98 1 0.46 70.0 10.764 19.8098 0 
290 1 0.46 70.0 11.2116 19.8059 0 
43 1 0.46 70.0 11.6618 19.8026 0 
95 1 0.46 70.0 12.1147 19.7993 0 
177 1 0.46 70.0 12.5702 19.7959 0 
68 1 0.46 70.0 13.0282 19.7925 0 
30 1 0.46 70.0 13.4909 19.7883 0 
273 1 0.46 70.0 13.9706 19.7831 0 
296 1 0.46 70.0 14.4738 19.7759 0 
191 1 0.46 70.0 14.9936 19.764 0 
148 1 0.46 70.0 15.4929 19.6555 0 
83 1 0.46 70.0 16.0546 19.6053 0 
