# LAMMPS data file for rigid bodies

303 atoms

1 atom types

0.0 	 20.0 	 xlo xhi 
0.0 	 20.0 	 ylo yhi 
-1.0 	 1.0 	 zlo zhi 

Atoms

202 1 0.46 70.0 8.92266 13.5623 0 
84 1 0.46 70.0 9.75227 13.471 0 
6 1 0.46 70.0 10.5728 13.5262 0 
122 1 0.46 70.0 7.36972 14.2112 0 
233 1 0.46 70.0 7.83195 13.7865 0 
149 1 0.46 70.0 8.40651 13.9044 0 
75 1 0.46 70.0 8.88575 14.1967 0 
26 1 0.46 70.0 9.3746 13.9118 0 
190 1 0.46 70.0 10.1287 13.9133 0 
189 1 0.46 70.0 10.62 14.1538 0 
183 1 0.46 70.0 11.0743 13.859 0 
20 1 0.46 70.0 11.6213 13.918 0 
253 1 0.46 70.0 12.2121 13.828 0 
76 1 0.46 70.0 6.78674 14.3282 0 
209 1 0.46 70.0 7.91598 14.3695 0 
147 1 0.46 70.0 8.42909 14.4735 0 
110 1 0.46 70.0 9.2913 14.5008 0 
59 1 0.46 70.0 9.74208 14.2756 0 
88 1 0.46 70.0 10.1869 14.4924 0 
82 1 0.46 70.0 11.1226 14.4512 0 
296 1 0.46 70.0 11.6425 14.4628 0 
56 1 0.46 70.0 12.1786 14.3966 0 
123 1 0.46 70.0 12.7589 14.2644 0 
297 1 0.46 70.0 6.2729 14.7707 0 
58 1 0.46 70.0 6.87125 14.8868 0 
161 1 0.46 70.0 7.40296 14.7732 0 
260 1 0.46 70.0 7.90917 14.8897 0 
252 1 0.46 70.0 8.40052 14.9756 0 
114 1 0.46 70.0 8.85632 14.7893 0 
138 1 0.46 70.0 9.29331 15.0015 0 
5 1 0.46 70.0 9.71905 14.8017 0 
175 1 0.46 70.0 10.1435 14.9868 0 
243 1 0.46 70.0 10.6465 14.6679 0 
85 1 0.46 70.0 11.0423 14.9866 0 
210 1 0.46 70.0 11.5141 14.9513 0 
31 1 0.46 70.0 12.0128 14.9049 0 
137 1 0.46 70.0 12.5389 14.8333 0 
258 1 0.46 70.0 13.0974 14.7579 0 
232 1 0.46 70.0 13.7145 14.811 0 
155 1 0.46 70.0 5.79642 15.2715 0 
237 1 0.46 70.0 6.39152 15.3301 0 
116 1 0.46 70.0 6.92777 15.3891 0 
25 1 0.46 70.0 7.43048 15.2979 0 
171 1 0.46 70.0 7.92741 15.3741 0 
261 1 0.46 70.0 8.41088 15.4347 0 
132 1 0.46 70.0 8.86855 15.3169 0 
196 1 0.46 70.0 9.32884 15.4566 0 
264 1 0.46 70.0 9.77333 15.3288 0 
172 1 0.46 70.0 10.5779 15.1378 0 
67 1 0.46 70.0 10.2478 15.4564 0 
54 1 0.46 70.0 10.891 15.4682 0 
111 1 0.46 70.0 11.3484 15.4192 0 
117 1 0.46 70.0 11.8214 15.3797 0 
129 1 0.46 70.0 12.3128 15.334 0 
259 1 0.46 70.0 12.8224 15.2886 0 
163 1 0.46 70.0 13.3585 15.265 0 
279 1 0.46 70.0 14.0279 15.3627 0 
41 1 0.46 70.0 5.42316 15.8065 0 
11 1 0.46 70.0 6.0345 15.8046 0 
14 1 0.46 70.0 6.57268 15.83 0 
303 1 0.46 70.0 7.08494 15.8395 0 
255 1 0.46 70.0 7.56864 15.781 0 
126 1 0.46 70.0 8.03817 15.8318 0 
298 1 0.46 70.0 8.49351 15.8815 0 
285 1 0.46 70.0 8.94108 15.8072 0 
292 1 0.46 70.0 9.38463 15.9033 0 
44 1 0.46 70.0 9.82494 15.8059 0 
201 1 0.46 70.0 10.2651 15.906 0 
293 1 0.46 70.0 10.7123 15.8849 0 
77 1 0.46 70.0 11.1694 15.8676 0 
74 1 0.46 70.0 11.6267 15.8333 0 
7 1 0.46 70.0 12.0916 15.7987 0 
135 1 0.46 70.0 12.5729 15.7676 0 
219 1 0.46 70.0 13.0728 15.7448 0 
203 1 0.46 70.0 13.6062 15.7266 0 
104 1 0.46 70.0 14.3693 15.8538 0 
195 1 0.46 70.0 5.10159 16.3495 0 
272 1 0.46 70.0 5.74732 16.2827 0 
217 1 0.46 70.0 6.28758 16.2861 0 
66 1 0.46 70.0 6.80056 16.2778 0 
254 1 0.46 70.0 7.32797 16.2349 0 
105 1 0.46 70.0 7.79204 16.2377 0 
94 1 0.46 70.0 8.24998 16.2706 0 
108 1 0.46 70.0 8.7074 16.283 0 
91 1 0.46 70.0 9.15469 16.2925 0 
274 1 0.46 70.0 9.6066 16.2968 0 
148 1 0.46 70.0 10.0492 16.3003 0 
109 1 0.46 70.0 10.501 16.2975 0 
225 1 0.46 70.0 10.9525 16.2816 0 
178 1 0.46 70.0 11.4076 16.2648 0 
12 1 0.46 70.0 11.8652 16.2419 0 
50 1 0.46 70.0 12.3293 16.2155 0 
250 1 0.46 70.0 12.8119 16.1976 0 
193 1 0.46 70.0 13.319 16.1821 0 
276 1 0.46 70.0 13.8734 16.1509 0 
267 1 0.46 70.0 14.4356 16.4258 0 
301 1 0.46 70.0 14.9775 16.2826 0 
158 1 0.46 70.0 5.49391 16.7516 0 
231 1 0.46 70.0 6.03121 16.7489 0 
199 1 0.46 70.0 6.53698 16.7252 0 
223 1 0.46 70.0 7.09166 16.639 0 
168 1 0.46 70.0 7.56659 16.6486 0 
95 1 0.46 70.0 8.02375 16.6671 0 
176 1 0.46 70.0 8.47902 16.6791 0 
300 1 0.46 70.0 8.93064 16.6886 0 
286 1 0.46 70.0 9.37996 16.6931 0 
73 1 0.46 70.0 9.82725 16.6983 0 
130 1 0.46 70.0 10.2755 16.6966 0 
48 1 0.46 70.0 10.7246 16.6918 0 
224 1 0.46 70.0 11.175 16.6792 0 
162 1 0.46 70.0 11.6285 16.6648 0 
269 1 0.46 70.0 12.0847 16.6453 0 
99 1 0.46 70.0 12.5442 16.629 0 
38 1 0.46 70.0 13.0171 16.6259 0 
282 1 0.46 70.0 13.4952 16.6256 0 
270 1 0.46 70.0 13.9762 16.6308 0 
115 1 0.46 70.0 15.3204 16.8606 0 
146 1 0.46 70.0 4.77873 16.8961 0 
151 1 0.46 70.0 5.23882 17.2029 0 
234 1 0.46 70.0 5.77597 17.2118 0 
218 1 0.46 70.0 6.27495 17.188 0 
268 1 0.46 70.0 6.87118 17.0397 0 
238 1 0.46 70.0 7.34281 17.0484 0 
53 1 0.46 70.0 7.80056 17.0633 0 
121 1 0.46 70.0 8.25515 17.0736 0 
207 1 0.46 70.0 8.70657 17.0815 0 
248 1 0.46 70.0 9.15598 17.0877 0 
143 1 0.46 70.0 9.60297 17.0926 0 
49 1 0.46 70.0 10.0506 17.0939 0 
169 1 0.46 70.0 10.498 17.0906 0 
3 1 0.46 70.0 10.9456 17.0845 0 
37 1 0.46 70.0 11.3948 17.0747 0 
160 1 0.46 70.0 11.8473 17.0625 0 
80 1 0.46 70.0 12.3028 17.047 0 
62 1 0.46 70.0 12.7622 17.0369 0 
46 1 0.46 70.0 13.2429 17.0544 0 
159 1 0.46 70.0 13.7299 17.0668 0 
283 1 0.46 70.0 14.247 17.0357 0 
271 1 0.46 70.0 14.7454 16.8999 0 
221 1 0.46 70.0 4.39606 17.4346 0 
1 1 0.46 70.0 4.9298 17.6285 0 
299 1 0.46 70.0 5.48989 17.662 0 
181 1 0.46 70.0 5.99878 17.657 0 
113 1 0.46 70.0 6.65654 17.4396 0 
153 1 0.46 70.0 7.11954 17.4466 0 
68 1 0.46 70.0 7.57662 17.4567 0 
150 1 0.46 70.0 8.03088 17.4651 0 
212 1 0.46 70.0 8.48275 17.4726 0 
57 1 0.46 70.0 8.93251 17.4794 0 
24 1 0.46 70.0 9.38 17.4851 0 
103 1 0.46 70.0 9.8262 17.4881 0 
291 1 0.46 70.0 10.2726 17.4872 0 
167 1 0.46 70.0 10.7187 17.4822 0 
8 1 0.46 70.0 11.1665 17.4749 0 
52 1 0.46 70.0 11.616 17.4663 0 
177 1 0.46 70.0 12.0682 17.4566 0 
229 1 0.46 70.0 12.524 17.4446 0 
86 1 0.46 70.0 12.985 17.4385 0 
262 1 0.46 70.0 13.4899 17.4764 0 
266 1 0.46 70.0 13.9912 17.4827 0 
200 1 0.46 70.0 14.5072 17.4599 0 
83 1 0.46 70.0 15.0316 17.3922 0 
204 1 0.46 70.0 15.6544 17.4376 0 
107 1 0.46 70.0 4.5477 18.0492 0 
27 1 0.46 70.0 5.17422 18.0926 0 
180 1 0.46 70.0 5.71673 18.1026 0 
239 1 0.46 70.0 6.17258 18.2067 0 
96 1 0.46 70.0 6.42376 17.8277 0 
2 1 0.46 70.0 6.89103 17.8411 0 
170 1 0.46 70.0 7.34943 17.8473 0 
89 1 0.46 70.0 7.80522 17.8547 0 
205 1 0.46 70.0 8.25838 17.862 0 
164 1 0.46 70.0 8.70893 17.8688 0 
249 1 0.46 70.0 9.15698 17.875 0 
228 1 0.46 70.0 9.6027 17.8797 0 
22 1 0.46 70.0 10.0483 17.8808 0 
289 1 0.46 70.0 10.4939 17.8778 0 
227 1 0.46 70.0 10.9397 17.8714 0 
211 1 0.46 70.0 11.3878 17.8638 0 
206 1 0.46 70.0 11.8383 17.8554 0 
220 1 0.46 70.0 12.2911 17.8472 0 
174 1 0.46 70.0 12.7469 17.839 0 
36 1 0.46 70.0 13.2087 17.8367 0 
70 1 0.46 70.0 13.7491 17.8961 0 
241 1 0.46 70.0 14.2465 17.9122 0 
118 1 0.46 70.0 14.7595 17.9034 0 
128 1 0.46 70.0 15.3008 17.8837 0 
242 1 0.46 70.0 4.17893 18.5243 0 
81 1 0.46 70.0 4.84564 18.5141 0 
165 1 0.46 70.0 5.43621 18.5196 0 
213 1 0.46 70.0 5.92472 18.5916 0 
98 1 0.46 70.0 6.65619 18.2318 0 
294 1 0.46 70.0 6.41574 18.619 0 
208 1 0.46 70.0 6.89069 18.6252 0 
240 1 0.46 70.0 7.12107 18.237 0 
142 1 0.46 70.0 7.35039 18.6308 0 
295 1 0.46 70.0 7.5785 18.2432 0 
136 1 0.46 70.0 7.80659 18.6366 0 
244 1 0.46 70.0 8.03306 18.2499 0 
235 1 0.46 70.0 8.25981 18.6425 0 
64 1 0.46 70.0 8.48482 18.2564 0 
51 1 0.46 70.0 8.71013 18.6483 0 
280 1 0.46 70.0 8.9338 18.2626 0 
139 1 0.46 70.0 9.15762 18.6541 0 
198 1 0.46 70.0 9.38 18.2683 0 
215 1 0.46 70.0 9.60223 18.6592 0 
273 1 0.46 70.0 9.82489 18.2715 0 
33 1 0.46 70.0 10.0466 18.6606 0 
10 1 0.46 70.0 10.2696 18.2706 0 
39 1 0.46 70.0 10.4908 18.6574 0 
192 1 0.46 70.0 10.714 18.2655 0 
247 1 0.46 70.0 10.9353 18.6509 0 
302 1 0.46 70.0 11.1607 18.2586 0 
34 1 0.46 70.0 11.3826 18.6443 0 
112 1 0.46 70.0 11.6097 18.2512 0 
131 1 0.46 70.0 11.8324 18.6376 0 
87 1 0.46 70.0 12.0611 18.2437 0 
55 1 0.46 70.0 12.2848 18.6312 0 
19 1 0.46 70.0 12.5151 18.2364 0 
97 1 0.46 70.0 12.7398 18.6254 0 
21 1 0.46 70.0 12.9719 18.2304 0 
15 1 0.46 70.0 13.1978 18.6204 0 
265 1 0.46 70.0 13.4372 18.2284 0 
226 1 0.46 70.0 13.6633 18.6185 0 
145 1 0.46 70.0 14.019 18.3353 0 
179 1 0.46 70.0 14.5114 18.3581 0 
9 1 0.46 70.0 15.0384 18.3504 0 
245 1 0.46 70.0 15.6812 18.292 0 
191 1 0.46 70.0 4.52482 18.9733 0 
144 1 0.46 70.0 5.15403 18.9235 0 
90 1 0.46 70.0 5.67154 18.9755 0 
69 1 0.46 70.0 6.17199 19.0054 0 
72 1 0.46 70.0 6.65492 19.0115 0 
106 1 0.46 70.0 7.12109 19.0176 0 
257 1 0.46 70.0 7.57884 19.0228 0 
140 1 0.46 70.0 8.03358 19.0278 0 
256 1 0.46 70.0 8.48535 19.0328 0 
120 1 0.46 70.0 8.93417 19.0379 0 
60 1 0.46 70.0 9.38 19.0436 0 
152 1 0.46 70.0 9.82407 19.0474 0 
277 1 0.46 70.0 10.2679 19.0467 0 
173 1 0.46 70.0 10.7112 19.0412 0 
29 1 0.46 70.0 11.1572 19.0349 0 
141 1 0.46 70.0 11.6055 19.0292 0 
42 1 0.46 70.0 12.0564 19.0238 0 
288 1 0.46 70.0 12.5099 19.0187 0 
124 1 0.46 70.0 12.9661 19.0141 0 
186 1 0.46 70.0 13.4253 19.0104 0 
156 1 0.46 70.0 13.8947 19.0048 0 
188 1 0.46 70.0 14.3007 18.7973 0 
287 1 0.46 70.0 14.7972 18.8077 0 
45 1 0.46 70.0 15.3464 18.772 0 
17 1 0.46 70.0 15.9947 18.814 0 
281 1 0.46 70.0 4.09905 19.3938 0 
40 1 0.46 70.0 4.88575 19.341 0 
166 1 0.46 70.0 5.41356 19.367 0 
134 1 0.46 70.0 5.92314 19.3901 0 
194 1 0.46 70.0 6.41523 19.3972 0 
251 1 0.46 70.0 6.88902 19.4035 0 
127 1 0.46 70.0 7.34919 19.4087 0 
187 1 0.46 70.0 7.80582 19.4128 0 
78 1 0.46 70.0 8.25928 19.4168 0 
47 1 0.46 70.0 8.70968 19.421 0 
16 1 0.46 70.0 9.15705 19.4254 0 
290 1 0.46 70.0 9.60152 19.4306 0 
61 1 0.46 70.0 10.0459 19.4324 0 
119 1 0.46 70.0 10.4901 19.4296 0 
197 1 0.46 70.0 10.934 19.4234 0 
93 1 0.46 70.0 11.3806 19.4186 0 
18 1 0.46 70.0 11.8299 19.4142 0 
4 1 0.46 70.0 12.282 19.4101 0 
230 1 0.46 70.0 12.7368 19.4063 0 
216 1 0.46 70.0 13.1943 19.4027 0 
102 1 0.46 70.0 13.6593 19.3987 0 
101 1 0.46 70.0 14.1433 19.3842 0 
92 1 0.46 70.0 14.5851 19.2619 0 
79 1 0.46 70.0 15.0811 19.2592 0 
32 1 0.46 70.0 15.6172 19.2392 0 
28 1 0.46 70.0 4.55924 19.729 0 
184 1 0.46 70.0 5.1469 19.772 0 
222 1 0.46 70.0 5.67339 19.7767 0 
71 1 0.46 70.0 6.17143 19.7826 0 
154 1 0.46 70.0 6.65156 19.7887 0 
263 1 0.46 70.0 7.11822 19.7946 0 
182 1 0.46 70.0 7.57661 19.798 0 
133 1 0.46 70.0 8.03181 19.801 0 
278 1 0.46 70.0 8.48386 19.804 0 
284 1 0.46 70.0 8.93291 19.807 0 
63 1 0.46 70.0 9.37923 19.8104 0 
35 1 0.46 70.0 9.82337 19.8141 0 
246 1 0.46 70.0 10.2683 19.8139 0 
236 1 0.46 70.0 10.712 19.8097 0 
185 1 0.46 70.0 11.1574 19.8059 0 
23 1 0.46 70.0 11.6053 19.8027 0 
65 1 0.46 70.0 12.056 19.7997 0 
157 1 0.46 70.0 12.5095 19.7969 0 
275 1 0.46 70.0 12.9661 19.7942 0 
214 1 0.46 70.0 13.426 19.7906 0 
13 1 0.46 70.0 13.9017 19.7836 0 
30 1 0.46 70.0 14.386 19.7739 0 
43 1 0.46 70.0 14.8583 19.7357 0 
100 1 0.46 70.0 15.3762 19.7285 0 
125 1 0.46 70.0 15.9846 19.655 0 
