# LAMMPS data file for rigid bodies

303 atoms

1 atom types

0.0 	 20.0 	 xlo xhi 
0.0 	 20.0 	 ylo yhi 
-1.0 	 1.0 	 zlo zhi 

Atoms

33 1 0.46 70.0 8.55252 13.7657 0 
84 1 0.46 70.0 9.19243 13.5574 0 
224 1 0.46 70.0 9.80187 13.5638 0 
206 1 0.46 70.0 10.4073 13.5721 0 
51 1 0.46 70.0 11.0028 13.6799 0 
200 1 0.46 70.0 7.26456 14.2186 0 
231 1 0.46 70.0 7.95011 13.8328 0 
258 1 0.46 70.0 8.99305 14.0998 0 
144 1 0.46 70.0 9.53263 14.0847 0 
90 1 0.46 70.0 10.0761 14.0904 0 
86 1 0.46 70.0 10.62 14.1141 0 
138 1 0.46 70.0 11.5837 13.8207 0 
253 1 0.46 70.0 12.1529 14.0313 0 
165 1 0.46 70.0 12.7366 14.2031 0 
36 1 0.46 70.0 7.81493 14.3825 0 
270 1 0.46 70.0 8.35074 14.345 0 
298 1 0.46 70.0 8.79666 14.5706 0 
208 1 0.46 70.0 9.29895 14.5697 0 
74 1 0.46 70.0 9.79279 14.5701 0 
174 1 0.46 70.0 10.2921 14.5769 0 
220 1 0.46 70.0 10.7972 14.5988 0 
192 1 0.46 70.0 11.1853 14.2565 0 
158 1 0.46 70.0 11.7155 14.4049 0 
289 1 0.46 70.0 12.2607 14.6196 0 
218 1 0.46 70.0 13.3361 14.5712 0 
245 1 0.46 70.0 6.30645 14.9297 0 
155 1 0.46 70.0 6.94909 14.7195 0 
129 1 0.46 70.0 7.51891 14.823 0 
260 1 0.46 70.0 8.0699 14.859 0 
109 1 0.46 70.0 8.53915 14.983 0 
49 1 0.46 70.0 9.0342 15.0206 0 
147 1 0.46 70.0 9.51081 15.0288 0 
23 1 0.46 70.0 9.98525 15.0322 0 
118 1 0.46 70.0 10.4601 15.0384 0 
215 1 0.46 70.0 10.9378 15.0485 0 
111 1 0.46 70.0 11.3431 14.7959 0 
47 1 0.46 70.0 11.8416 14.9221 0 
45 1 0.46 70.0 12.7855 14.7729 0 
104 1 0.46 70.0 13.9142 15.0305 0 
187 1 0.46 70.0 5.62495 15.4967 0 
82 1 0.46 70.0 6.19775 15.5245 0 
238 1 0.46 70.0 6.79388 15.2419 0 
169 1 0.46 70.0 7.31733 15.2843 0 
243 1 0.46 70.0 7.82488 15.3076 0 
85 1 0.46 70.0 8.29678 15.3979 0 
235 1 0.46 70.0 8.77495 15.4375 0 
257 1 0.46 70.0 9.243 15.4605 0 
250 1 0.46 70.0 9.70191 15.4699 0 
266 1 0.46 70.0 10.1599 15.4744 0 
302 1 0.46 70.0 10.6171 15.4783 0 
57 1 0.46 70.0 11.0735 15.4836 0 
39 1 0.46 70.0 11.4965 15.313 0 
59 1 0.46 70.0 11.9576 15.3957 0 
55 1 0.46 70.0 12.3738 15.1794 0 
173 1 0.46 70.0 12.8594 15.2801 0 
11 1 0.46 70.0 13.3572 15.1548 0 
149 1 0.46 70.0 14.2469 15.5499 0 
197 1 0.46 70.0 6.66973 15.7312 0 
242 1 0.46 70.0 7.16043 15.7452 0 
53 1 0.46 70.0 7.63651 15.7589 0 
69 1 0.46 70.0 8.09249 15.8185 0 
62 1 0.46 70.0 8.55086 15.8499 0 
246 1 0.46 70.0 9.00845 15.8707 0 
2 1 0.46 70.0 9.46419 15.8843 0 
96 1 0.46 70.0 9.91901 15.8909 0 
154 1 0.46 70.0 10.3731 15.8936 0 
139 1 0.46 70.0 10.827 15.8927 0 
226 1 0.46 70.0 11.2831 15.8843 0 
44 1 0.46 70.0 11.7297 15.8117 0 
92 1 0.46 70.0 12.1918 15.7964 0 
299 1 0.46 70.0 12.6441 15.7196 0 
234 1 0.46 70.0 13.1543 15.7001 0 
279 1 0.46 70.0 13.6721 15.6168 0 
230 1 0.46 70.0 5.31346 16.055 0 
151 1 0.46 70.0 5.91542 16.0369 0 
201 1 0.46 70.0 6.42111 16.1514 0 
50 1 0.46 70.0 6.93888 16.1798 0 
58 1 0.46 70.0 7.42095 16.1937 0 
178 1 0.46 70.0 7.8794 16.2301 0 
163 1 0.46 70.0 8.33707 16.2566 0 
10 1 0.46 70.0 8.79269 16.2752 0 
265 1 0.46 70.0 9.24617 16.2872 0 
37 1 0.46 70.0 9.69773 16.2931 0 
241 1 0.46 70.0 10.1487 16.2945 0 
276 1 0.46 70.0 10.6003 16.2933 0 
256 1 0.46 70.0 11.0534 16.2907 0 
185 1 0.46 70.0 11.5098 16.2773 0 
123 1 0.46 70.0 11.9639 16.2344 0 
301 1 0.46 70.0 12.427 16.2031 0 
121 1 0.46 70.0 12.8982 16.153 0 
115 1 0.46 70.0 13.4064 16.1323 0 
170 1 0.46 70.0 13.9327 16.081 0 
19 1 0.46 70.0 14.5237 16.054 0 
140 1 0.46 70.0 5.01315 16.5907 0 
248 1 0.46 70.0 5.65575 16.5236 0 
9 1 0.46 70.0 6.18034 16.578 0 
124 1 0.46 70.0 6.70595 16.5886 0 
160 1 0.46 70.0 7.19795 16.6105 0 
204 1 0.46 70.0 7.66157 16.6348 0 
297 1 0.46 70.0 8.11879 16.6583 0 
28 1 0.46 70.0 8.57341 16.6746 0 
287 1 0.46 70.0 9.02544 16.6852 0 
216 1 0.46 70.0 9.47489 16.6905 0 
34 1 0.46 70.0 9.92414 16.6928 0 
125 1 0.46 70.0 10.3738 16.6926 0 
271 1 0.46 70.0 10.8238 16.69 0 
26 1 0.46 70.0 11.2762 16.6859 0 
189 1 0.46 70.0 11.7312 16.6723 0 
198 1 0.46 70.0 12.1864 16.6365 0 
88 1 0.46 70.0 12.6495 16.6062 0 
219 1 0.46 70.0 13.1297 16.5742 0 
244 1 0.46 70.0 13.6435 16.5644 0 
157 1 0.46 70.0 14.1784 16.5346 0 
142 1 0.46 70.0 14.7937 16.5428 0 
54 1 0.46 70.0 4.72357 17.1387 0 
167 1 0.46 70.0 5.41128 16.99 0 
180 1 0.46 70.0 5.94353 17.0129 0 
228 1 0.46 70.0 6.48088 16.9923 0 
179 1 0.46 70.0 6.97419 17.0123 0 
12 1 0.46 70.0 7.44082 17.0358 0 
202 1 0.46 70.0 7.898 17.0558 0 
288 1 0.46 70.0 8.35235 17.07 0 
164 1 0.46 70.0 8.80365 17.0789 0 
153 1 0.46 70.0 9.25284 17.0849 0 
93 1 0.46 70.0 9.70065 17.089 0 
60 1 0.46 70.0 10.1487 17.0899 0 
222 1 0.46 70.0 10.5971 17.0881 0 
106 1 0.46 70.0 11.0462 17.0837 0 
120 1 0.46 70.0 11.4981 17.078 0 
46 1 0.46 70.0 11.9526 17.0653 0 
116 1 0.46 70.0 12.4083 17.0358 0 
211 1 0.46 70.0 12.8704 17.0084 0 
283 1 0.46 70.0 13.3552 16.9862 0 
100 1 0.46 70.0 13.8797 16.9932 0 
102 1 0.46 70.0 14.4217 16.9777 0 
130 1 0.46 70.0 15.0742 17.0241 0 
1 1 0.46 70.0 4.35918 17.668 0 
27 1 0.46 70.0 5.18274 17.4484 0 
14 1 0.46 70.0 5.70584 17.4587 0 
277 1 0.46 70.0 6.25967 17.3948 0 
251 1 0.46 70.0 6.75033 17.4128 0 
255 1 0.46 70.0 7.21704 17.4331 0 
294 1 0.46 70.0 7.67464 17.4499 0 
203 1 0.46 70.0 8.12903 17.4613 0 
168 1 0.46 70.0 8.58073 17.4697 0 
156 1 0.46 70.0 9.03033 17.4769 0 
78 1 0.46 70.0 9.47752 17.4824 0 
134 1 0.46 70.0 9.92444 17.485 0 
280 1 0.46 70.0 10.3713 17.4844 0 
225 1 0.46 70.0 10.8184 17.4805 0 
75 1 0.46 70.0 11.2676 17.4749 0 
21 1 0.46 70.0 11.7195 17.4678 0 
286 1 0.46 70.0 12.1737 17.4567 0 
99 1 0.46 70.0 12.6299 17.4329 0 
210 1 0.46 70.0 13.0918 17.4091 0 
292 1 0.46 70.0 13.5787 17.3899 0 
300 1 0.46 70.0 14.1199 17.4216 0 
61 1 0.46 70.0 14.6666 17.4136 0 
275 1 0.46 70.0 15.3486 17.5207 0 
136 1 0.46 70.0 4.89529 17.8704 0 
162 1 0.46 70.0 5.43954 17.917 0 
272 1 0.46 70.0 5.81881 18.1959 0 
35 1 0.46 70.0 6.04093 17.7972 0 
107 1 0.46 70.0 6.30122 18.2127 0 
186 1 0.46 70.0 6.52652 17.8129 0 
177 1 0.46 70.0 6.99224 17.8286 0 
190 1 0.46 70.0 7.45001 17.8412 0 
182 1 0.46 70.0 7.90487 17.8505 0 
4 1 0.46 70.0 8.35749 17.8589 0 
175 1 0.46 70.0 8.8077 17.8663 0 
205 1 0.46 70.0 9.2556 17.8729 0 
42 1 0.46 70.0 9.70133 17.8775 0 
145 1 0.46 70.0 10.1472 17.8785 0 
56 1 0.46 70.0 10.5932 17.8759 0 
131 1 0.46 70.0 11.0399 17.8704 0 
195 1 0.46 70.0 11.4894 17.8637 0 
126 1 0.46 70.0 11.9416 17.8557 0 
133 1 0.46 70.0 12.3961 17.8459 0 
269 1 0.46 70.0 12.8528 17.8277 0 
223 1 0.46 70.0 13.3159 17.8075 0 
91 1 0.46 70.0 13.0771 18.2207 0 
31 1 0.46 70.0 13.5416 18.2047 0 
24 1 0.46 70.0 13.8034 17.7903 0 
296 1 0.46 70.0 14.0279 18.1893 0 
259 1 0.46 70.0 14.3661 17.856 0 
108 1 0.46 70.0 14.9033 17.8538 0 
217 1 0.46 70.0 15.6437 18.028 0 
161 1 0.46 70.0 4.53164 18.2689 0 
146 1 0.46 70.0 5.12039 18.352 0 
263 1 0.46 70.0 5.55575 18.5689 0 
293 1 0.46 70.0 6.06218 18.6061 0 
212 1 0.46 70.0 6.53529 18.6157 0 
132 1 0.46 70.0 6.76556 18.2228 0 
8 1 0.46 70.0 6.99553 18.6203 0 
76 1 0.46 70.0 7.22371 18.2309 0 
194 1 0.46 70.0 7.45302 18.6267 0 
213 1 0.46 70.0 7.6796 18.2388 0 
249 1 0.46 70.0 7.9078 18.6334 0 
264 1 0.46 70.0 8.13321 18.2465 0 
237 1 0.46 70.0 8.36001 18.64 0 
72 1 0.46 70.0 8.58432 18.2539 0 
267 1 0.46 70.0 8.80962 18.6465 0 
176 1 0.46 70.0 9.0328 18.2607 0 
114 1 0.46 70.0 9.25659 18.6531 0 
79 1 0.46 70.0 9.47846 18.2669 0 
20 1 0.46 70.0 9.70093 18.6585 0 
233 1 0.46 70.0 9.92363 18.27 0 
252 1 0.46 70.0 10.1455 18.6597 0 
66 1 0.46 70.0 10.3687 18.2691 0 
285 1 0.46 70.0 10.5902 18.6564 0 
135 1 0.46 70.0 10.8137 18.2642 0 
64 1 0.46 70.0 11.0355 18.65 0 
68 1 0.46 70.0 11.2614 18.2578 0 
7 1 0.46 70.0 11.4839 18.6434 0 
119 1 0.46 70.0 11.7117 18.2507 0 
150 1 0.46 70.0 11.9351 18.6366 0 
29 1 0.46 70.0 12.1647 18.2427 0 
214 1 0.46 70.0 12.3888 18.6294 0 
262 1 0.46 70.0 12.6198 18.2338 0 
295 1 0.46 70.0 12.8449 18.6214 0 
274 1 0.46 70.0 13.3028 18.6126 0 
70 1 0.46 70.0 13.7678 18.6024 0 
181 1 0.46 70.0 14.2501 18.5883 0 
183 1 0.46 70.0 14.6228 18.307 0 
67 1 0.46 70.0 15.1548 18.2903 0 
22 1 0.46 70.0 15.9972 18.5444 0 
97 1 0.46 70.0 4.19001 18.7087 0 
117 1 0.46 70.0 4.79568 18.7717 0 
73 1 0.46 70.0 5.28025 18.9361 0 
268 1 0.46 70.0 5.80552 18.9875 0 
122 1 0.46 70.0 6.29732 19.0058 0 
15 1 0.46 70.0 6.76661 19.0103 0 
137 1 0.46 70.0 7.22525 19.0147 0 
6 1 0.46 70.0 7.68119 19.02 0 
112 1 0.46 70.0 8.13445 19.0255 0 
41 1 0.46 70.0 8.58504 19.0311 0 
40 1 0.46 70.0 9.03291 19.037 0 
232 1 0.46 70.0 9.47768 19.0437 0 
101 1 0.46 70.0 9.92221 19.0472 0 
148 1 0.46 70.0 10.3668 19.0461 0 
188 1 0.46 70.0 10.811 19.0403 0 
229 1 0.46 70.0 11.2579 19.0341 0 
38 1 0.46 70.0 11.7075 19.0283 0 
5 1 0.46 70.0 12.1598 19.0224 0 
193 1 0.46 70.0 12.6145 19.0162 0 
32 1 0.46 70.0 13.0717 19.0096 0 
105 1 0.46 70.0 13.5312 19.004 0 
95 1 0.46 70.0 14.0008 18.9979 0 
25 1 0.46 70.0 14.4937 18.9749 0 
207 1 0.46 70.0 14.9159 18.7654 0 
98 1 0.46 70.0 15.4524 18.718 0 
89 1 0.46 70.0 3.88324 19.2291 0 
65 1 0.46 70.0 4.50424 19.2213 0 
191 1 0.46 70.0 5.02195 19.3305 0 
171 1 0.46 70.0 5.54548 19.3683 0 
239 1 0.46 70.0 6.05137 19.3918 0 
209 1 0.46 70.0 6.53283 19.3988 0 
143 1 0.46 70.0 6.99594 19.4031 0 
87 1 0.46 70.0 7.45317 19.407 0 
80 1 0.46 70.0 7.90765 19.4112 0 
278 1 0.46 70.0 8.35936 19.4155 0 
196 1 0.46 70.0 8.80837 19.42 0 
303 1 0.46 70.0 9.25489 19.4256 0 
71 1 0.46 70.0 9.69885 19.4314 0 
254 1 0.46 70.0 10.144 19.4322 0 
172 1 0.46 70.0 10.5892 19.429 0 
199 1 0.46 70.0 11.0341 19.4226 0 
240 1 0.46 70.0 11.4819 19.4177 0 
13 1 0.46 70.0 11.9325 19.4132 0 
16 1 0.46 70.0 12.3859 19.4085 0 
17 1 0.46 70.0 12.8417 19.4036 0 
152 1 0.46 70.0 13.2998 19.3989 0 
166 1 0.46 70.0 13.7645 19.3948 0 
77 1 0.46 70.0 14.249 19.3852 0 
282 1 0.46 70.0 14.7629 19.3478 0 
159 1 0.46 70.0 15.2407 19.2218 0 
63 1 0.46 70.0 15.8061 19.1516 0 
284 1 0.46 70.0 4.21972 19.7011 0 
94 1 0.46 70.0 4.76607 19.7503 0 
81 1 0.46 70.0 5.29697 19.7721 0 
236 1 0.46 70.0 5.80323 19.7778 0 
281 1 0.46 70.0 6.29097 19.7843 0 
261 1 0.46 70.0 6.76407 19.7911 0 
30 1 0.46 70.0 7.22337 19.7946 0 
3 1 0.46 70.0 7.67939 19.7974 0 
290 1 0.46 70.0 8.13236 19.8004 0 
141 1 0.46 70.0 8.58235 19.8035 0 
247 1 0.46 70.0 9.02941 19.8069 0 
128 1 0.46 70.0 9.4738 19.8125 0 
43 1 0.46 70.0 9.91997 19.8141 0 
273 1 0.46 70.0 10.3662 19.8135 0 
127 1 0.46 70.0 10.8112 19.8091 0 
103 1 0.46 70.0 11.2578 19.8052 0 
110 1 0.46 70.0 11.7071 19.8019 0 
291 1 0.46 70.0 12.159 19.7987 0 
227 1 0.46 70.0 12.6136 19.7954 0 
52 1 0.46 70.0 13.0708 19.7922 0 
48 1 0.46 70.0 13.5308 19.7884 0 
184 1 0.46 70.0 14.0061 19.7822 0 
18 1 0.46 70.0 14.5004 19.7748 0 
113 1 0.46 70.0 15.0137 19.7612 0 
221 1 0.46 70.0 15.5282 19.6937 0 
83 1 0.46 70.0 16.1049 19.6423 0 
