# LAMMPS data file for rigid bodies

303 atoms

1 atom types

0.0 	 20.0 	 xlo xhi 
0.0 	 20.0 	 ylo yhi 
-1.0 	 1.0 	 zlo zhi 

Atoms

265 1 0.46 70.0 8.81167 13.5121 0 
168 1 0.46 70.0 9.79239 13.4687 0 
298 1 0.46 70.0 10.644 13.4469 0 
76 1 0.46 70.0 11.1688 13.7622 0 
60 1 0.46 70.0 7.25064 14.1919 0 
166 1 0.46 70.0 8.25053 13.8693 0 
183 1 0.46 70.0 8.8208 14.0996 0 
149 1 0.46 70.0 9.32385 13.8179 0 
125 1 0.46 70.0 9.78867 14.1212 0 
3 1 0.46 70.0 10.2421 13.8426 0 
301 1 0.46 70.0 10.7122 14.1141 0 
129 1 0.46 70.0 11.5285 14.1902 0 
84 1 0.46 70.0 11.9071 13.7798 0 
142 1 0.46 70.0 12.4189 14.1503 0 
233 1 0.46 70.0 6.83818 14.6658 0 
222 1 0.46 70.0 7.82783 14.3027 0 
196 1 0.46 70.0 8.3679 14.4457 0 
43 1 0.46 70.0 8.88073 14.6193 0 
163 1 0.46 70.0 9.33418 14.3793 0 
92 1 0.46 70.0 9.81078 14.652 0 
45 1 0.46 70.0 10.2563 14.4027 0 
235 1 0.46 70.0 11.0946 14.4602 0 
121 1 0.46 70.0 11.969 14.4898 0 
190 1 0.46 70.0 12.9064 14.4889 0 
220 1 0.46 70.0 6.00272 15.1043 0 
226 1 0.46 70.0 7.43393 14.7592 0 
36 1 0.46 70.0 7.96491 14.8487 0 
18 1 0.46 70.0 8.46562 14.9589 0 
65 1 0.46 70.0 8.95174 15.0945 0 
225 1 0.46 70.0 9.38001 14.8871 0 
5 1 0.46 70.0 10.2495 14.9328 0 
116 1 0.46 70.0 10.6661 14.7006 0 
25 1 0.46 70.0 11.0637 15.0006 0 
152 1 0.46 70.0 11.5107 14.7581 0 
151 1 0.46 70.0 11.9321 15.043 0 
148 1 0.46 70.0 12.4063 14.7874 0 
48 1 0.46 70.0 12.8397 15.0881 0 
221 1 0.46 70.0 13.3731 14.8397 0 
93 1 0.46 70.0 14.1836 14.9681 0 
114 1 0.46 70.0 6.57337 15.1737 0 
63 1 0.46 70.0 7.11744 15.2087 0 
248 1 0.46 70.0 7.62825 15.276 0 
82 1 0.46 70.0 8.11099 15.3526 0 
14 1 0.46 70.0 8.57583 15.4382 0 
106 1 0.46 70.0 9.0282 15.5464 0 
260 1 0.46 70.0 9.44084 15.3646 0 
141 1 0.46 70.0 9.84517 15.1526 0 
136 1 0.46 70.0 10.2145 15.4513 0 
172 1 0.46 70.0 10.6334 15.228 0 
100 1 0.46 70.0 11.0371 15.4986 0 
187 1 0.46 70.0 11.477 15.2688 0 
150 1 0.46 70.0 11.8822 15.5551 0 
253 1 0.46 70.0 12.3429 15.3303 0 
290 1 0.46 70.0 13.2281 15.4513 0 
249 1 0.46 70.0 13.7244 15.289 0 
144 1 0.46 70.0 5.67486 15.646 0 
284 1 0.46 70.0 6.2762 15.656 0 
28 1 0.46 70.0 6.83539 15.6636 0 
54 1 0.46 70.0 7.34335 15.7057 0 
96 1 0.46 70.0 7.82351 15.7655 0 
224 1 0.46 70.0 8.28602 15.8295 0 
126 1 0.46 70.0 8.7423 15.8922 0 
111 1 0.46 70.0 9.34098 15.8792 0 
205 1 0.46 70.0 9.78851 15.6638 0 
201 1 0.46 70.0 10.206 15.9159 0 
237 1 0.46 70.0 10.62 15.7124 0 
124 1 0.46 70.0 11.0024 15.9792 0 
42 1 0.46 70.0 11.4375 15.7475 0 
204 1 0.46 70.0 12.2758 15.8403 0 
285 1 0.46 70.0 12.7463 15.619 0 
86 1 0.46 70.0 13.1664 15.9665 0 
292 1 0.46 70.0 13.6679 15.8267 0 
6 1 0.46 70.0 14.2144 15.619 0 
223 1 0.46 70.0 5.40556 16.1801 0 
193 1 0.46 70.0 6.00237 16.1342 0 
20 1 0.46 70.0 6.57489 16.1021 0 
8 1 0.46 70.0 7.08717 16.1313 0 
228 1 0.46 70.0 7.56779 16.1778 0 
210 1 0.46 70.0 8.0304 16.2289 0 
218 1 0.46 70.0 8.48822 16.2703 0 
147 1 0.46 70.0 8.95666 16.2891 0 
170 1 0.46 70.0 9.40546 16.3275 0 
197 1 0.46 70.0 9.7962 16.1199 0 
185 1 0.46 70.0 10.1665 16.374 0 
178 1 0.46 70.0 10.5859 16.1768 0 
297 1 0.46 70.0 10.9611 16.4421 0 
209 1 0.46 70.0 11.4019 16.2042 0 
59 1 0.46 70.0 11.8329 16.0439 0 
179 1 0.46 70.0 12.221 16.3238 0 
64 1 0.46 70.0 12.6872 16.0961 0 
153 1 0.46 70.0 13.576 16.3323 0 
117 1 0.46 70.0 14.0934 16.182 0 
272 1 0.46 70.0 14.6609 16.0017 0 
61 1 0.46 70.0 4.80004 16.466 0 
165 1 0.46 70.0 5.28244 16.759 0 
262 1 0.46 70.0 5.77846 16.6319 0 
160 1 0.46 70.0 6.33874 16.5338 0 
73 1 0.46 70.0 6.84647 16.5494 0 
282 1 0.46 70.0 7.32569 16.5857 0 
280 1 0.46 70.0 7.78727 16.6271 0 
173 1 0.46 70.0 8.2455 16.6565 0 
4 1 0.46 70.0 8.70478 16.6735 0 
217 1 0.46 70.0 9.16146 16.6989 0 
261 1 0.46 70.0 9.69497 16.6733 0 
229 1 0.46 70.0 10.1296 16.8188 0 
274 1 0.46 70.0 10.5454 16.6315 0 
243 1 0.46 70.0 11.3627 16.6527 0 
188 1 0.46 70.0 11.7977 16.5174 0 
32 1 0.46 70.0 12.1754 16.8005 0 
162 1 0.46 70.0 12.6246 16.5498 0 
154 1 0.46 70.0 13.0909 16.4499 0 
269 1 0.46 70.0 13.4947 16.8163 0 
271 1 0.46 70.0 13.9813 16.6995 0 
158 1 0.46 70.0 14.5016 16.5747 0 
200 1 0.46 70.0 15.0787 16.4508 0 
258 1 0.46 70.0 4.81786 17.1364 0 
267 1 0.46 70.0 5.38851 17.2584 0 
232 1 0.46 70.0 6.12555 16.9669 0 
300 1 0.46 70.0 6.61822 16.967 0 
191 1 0.46 70.0 7.08958 16.9909 0 
294 1 0.46 70.0 7.54782 17.0226 0 
19 1 0.46 70.0 8.00463 17.0447 0 
199 1 0.46 70.0 8.4601 17.0606 0 
128 1 0.46 70.0 8.91251 17.0787 0 
140 1 0.46 70.0 9.36543 17.0919 0 
46 1 0.46 70.0 9.80801 17.1134 0 
143 1 0.46 70.0 10.4873 17.0816 0 
231 1 0.46 70.0 10.9095 16.9053 0 
115 1 0.46 70.0 11.3196 17.0896 0 
286 1 0.46 70.0 11.7581 16.9807 0 
273 1 0.46 70.0 12.1275 17.2982 0 
246 1 0.46 70.0 12.5834 16.9998 0 
247 1 0.46 70.0 13.0336 16.9134 0 
119 1 0.46 70.0 13.4481 17.2868 0 
41 1 0.46 70.0 13.8986 17.1941 0 
176 1 0.46 70.0 14.3788 17.1001 0 
77 1 0.46 70.0 14.8995 17.0139 0 
105 1 0.46 70.0 15.499 16.9561 0 
1 1 0.46 70.0 4.48028 17.6324 0 
132 1 0.46 70.0 5.06653 17.6874 0 
251 1 0.46 70.0 5.59265 17.766 0 
277 1 0.46 70.0 5.86586 17.3524 0 
66 1 0.46 70.0 6.12295 17.7745 0 
171 1 0.46 70.0 6.37996 17.3827 0 
215 1 0.46 70.0 6.85331 17.3946 0 
230 1 0.46 70.0 7.3117 17.417 0 
26 1 0.46 70.0 7.76753 17.4343 0 
110 1 0.46 70.0 8.22105 17.4486 0 
302 1 0.46 70.0 8.67157 17.4641 0 
97 1 0.46 70.0 9.11964 17.4786 0 
7 1 0.46 70.0 9.56223 17.4954 0 
113 1 0.46 70.0 10.0055 17.5021 0 
35 1 0.46 70.0 10.4365 17.5148 0 
91 1 0.46 70.0 10.8496 17.3606 0 
24 1 0.46 70.0 11.2587 17.5124 0 
102 1 0.46 70.0 11.6968 17.4333 0 
252 1 0.46 70.0 12.5555 17.4412 0 
169 1 0.46 70.0 13.0008 17.3707 0 
184 1 0.46 70.0 13.2926 17.7516 0 
40 1 0.46 70.0 13.7455 17.6792 0 
295 1 0.46 70.0 14.2134 17.6027 0 
279 1 0.46 70.0 14.7122 17.5366 0 
208 1 0.46 70.0 15.2595 17.4836 0 
250 1 0.46 70.0 4.15651 18.1778 0 
50 1 0.46 70.0 4.77855 18.1514 0 
198 1 0.46 70.0 5.31418 18.1873 0 
281 1 0.46 70.0 5.87469 18.1681 0 
21 1 0.46 70.0 6.61605 17.7948 0 
47 1 0.46 70.0 6.37396 18.1853 0 
51 1 0.46 70.0 6.84197 18.2039 0 
75 1 0.46 70.0 7.07625 17.8107 0 
109 1 0.46 70.0 7.2991 18.2145 0 
270 1 0.46 70.0 7.53251 17.8243 0 
244 1 0.46 70.0 7.98591 17.8371 0 
107 1 0.46 70.0 8.43613 17.8508 0 
288 1 0.46 70.0 8.88331 17.8649 0 
12 1 0.46 70.0 9.32654 17.88 0 
227 1 0.46 70.0 9.76718 17.8916 0 
245 1 0.46 70.0 10.2035 17.9017 0 
39 1 0.46 70.0 10.6402 17.8968 0 
16 1 0.46 70.0 11.0648 17.8933 0 
33 1 0.46 70.0 11.5132 17.872 0 
130 1 0.46 70.0 11.9518 17.8089 0 
69 1 0.46 70.0 12.3887 17.8442 0 
37 1 0.46 70.0 12.8406 17.8084 0 
195 1 0.46 70.0 12.6391 18.221 0 
29 1 0.46 70.0 13.0936 18.1916 0 
87 1 0.46 70.0 13.5489 18.1424 0 
135 1 0.46 70.0 14.0108 18.0818 0 
296 1 0.46 70.0 14.4971 18.0242 0 
207 1 0.46 70.0 15.0241 17.9847 0 
293 1 0.46 70.0 15.6331 17.9187 0 
156 1 0.46 70.0 4.50004 18.6348 0 
287 1 0.46 70.0 5.03811 18.6445 0 
131 1 0.46 70.0 5.63051 18.5605 0 
180 1 0.46 70.0 6.13569 18.5777 0 
104 1 0.46 70.0 6.60813 18.596 0 
161 1 0.46 70.0 7.06666 18.6051 0 
137 1 0.46 70.0 7.52184 18.6145 0 
127 1 0.46 70.0 7.75316 18.2257 0 
53 1 0.46 70.0 7.97383 18.6247 0 
275 1 0.46 70.0 8.20404 18.2377 0 
155 1 0.46 70.0 8.42279 18.6356 0 
101 1 0.46 70.0 8.65181 18.2505 0 
182 1 0.46 70.0 8.86886 18.6474 0 
123 1 0.46 70.0 9.09622 18.2642 0 
23 1 0.46 70.0 9.31227 18.6598 0 
192 1 0.46 70.0 9.5375 18.2772 0 
57 1 0.46 70.0 9.97717 18.2877 0 
94 1 0.46 70.0 10.4174 18.2898 0 
268 1 0.46 70.0 10.8554 18.2871 0 
283 1 0.46 70.0 11.0809 18.6653 0 
13 1 0.46 70.0 11.2986 18.271 0 
303 1 0.46 70.0 11.527 18.6507 0 
9 1 0.46 70.0 11.7437 18.2509 0 
34 1 0.46 70.0 11.9735 18.6378 0 
299 1 0.46 70.0 12.1845 18.2383 0 
52 1 0.46 70.0 12.4245 18.6221 0 
264 1 0.46 70.0 12.8795 18.6059 0 
49 1 0.46 70.0 13.3358 18.581 0 
202 1 0.46 70.0 13.7933 18.5383 0 
134 1 0.46 70.0 14.2672 18.4901 0 
240 1 0.46 70.0 14.7697 18.4505 0 
83 1 0.46 70.0 15.3313 18.4295 0 
236 1 0.46 70.0 15.9549 18.4484 0 
112 1 0.46 70.0 4.12722 19.0622 0 
31 1 0.46 70.0 5.40143 18.9598 0 
259 1 0.46 70.0 5.90172 18.9727 0 
211 1 0.46 70.0 6.37604 18.9891 0 
56 1 0.46 70.0 6.83539 18.9965 0 
2 1 0.46 70.0 7.29157 19.004 0 
11 1 0.46 70.0 7.74464 19.0121 0 
186 1 0.46 70.0 8.1948 19.0209 0 
216 1 0.46 70.0 8.64222 19.0303 0 
62 1 0.46 70.0 9.08716 19.0407 0 
291 1 0.46 70.0 9.52943 19.052 0 
206 1 0.46 70.0 9.753 18.6712 0 
15 1 0.46 70.0 10.1945 18.6763 0 
88 1 0.46 70.0 9.9722 19.0592 0 
213 1 0.46 70.0 10.6358 18.6747 0 
55 1 0.46 70.0 10.4157 19.0596 0 
72 1 0.46 70.0 10.8603 19.0531 0 
212 1 0.46 70.0 11.3075 19.0434 0 
95 1 0.46 70.0 11.7557 19.0326 0 
276 1 0.46 70.0 12.2066 19.0204 0 
22 1 0.46 70.0 12.6599 19.0073 0 
278 1 0.46 70.0 13.1158 18.9946 0 
89 1 0.46 70.0 13.5736 18.9736 0 
164 1 0.46 70.0 14.037 18.9384 0 
85 1 0.46 70.0 14.5203 18.9057 0 
234 1 0.46 70.0 15.0372 18.879 0 
67 1 0.46 70.0 15.6253 18.9165 0 
194 1 0.46 70.0 4.71474 19.134 0 
256 1 0.46 70.0 5.15511 19.3503 0 
80 1 0.46 70.0 5.66516 19.371 0 
167 1 0.46 70.0 6.14421 19.3837 0 
157 1 0.46 70.0 6.60501 19.3893 0 
99 1 0.46 70.0 7.06201 19.3947 0 
120 1 0.46 70.0 7.51608 19.4007 0 
71 1 0.46 70.0 7.96735 19.4071 0 
242 1 0.46 70.0 8.416 19.4141 0 
254 1 0.46 70.0 8.86235 19.4216 0 
203 1 0.46 70.0 9.30684 19.4304 0 
159 1 0.46 70.0 9.74959 19.439 0 
98 1 0.46 70.0 10.1942 19.4415 0 
145 1 0.46 70.0 10.6388 19.437 0 
133 1 0.46 70.0 11.0861 19.4303 0 
238 1 0.46 70.0 11.535 19.4229 0 
38 1 0.46 70.0 11.9857 19.4142 0 
27 1 0.46 70.0 12.4383 19.4048 0 
255 1 0.46 70.0 12.8928 19.3952 0 
10 1 0.46 70.0 13.3495 19.3865 0 
175 1 0.46 70.0 13.8083 19.3689 0 
289 1 0.46 70.0 14.2777 19.3491 0 
138 1 0.46 70.0 14.7678 19.3315 0 
118 1 0.46 70.0 15.2917 19.3215 0 
139 1 0.46 70.0 16.033 19.3482 0 
146 1 0.46 70.0 3.86396 19.6156 0 
108 1 0.46 70.0 4.42376 19.6323 0 
177 1 0.46 70.0 4.91169 19.7627 0 
103 1 0.46 70.0 5.42439 19.7741 0 
78 1 0.46 70.0 5.91055 19.7789 0 
257 1 0.46 70.0 6.37481 19.7834 0 
79 1 0.46 70.0 6.83267 19.7869 0 
266 1 0.46 70.0 7.28774 19.7908 0 
74 1 0.46 70.0 7.74009 19.795 0 
239 1 0.46 70.0 8.18983 19.7994 0 
68 1 0.46 70.0 8.63713 19.8041 0 
214 1 0.46 70.0 9.08223 19.8092 0 
241 1 0.46 70.0 9.52567 19.8163 0 
174 1 0.46 70.0 9.97194 19.8191 0 
17 1 0.46 70.0 10.4192 19.8185 0 
30 1 0.46 70.0 10.8651 19.8131 0 
70 1 0.46 70.0 11.3132 19.8087 0 
181 1 0.46 70.0 11.7634 19.8037 0 
122 1 0.46 70.0 12.2153 19.798 0 
44 1 0.46 70.0 12.6688 19.7921 0 
81 1 0.46 70.0 13.124 19.7863 0 
90 1 0.46 70.0 13.5812 19.7812 0 
219 1 0.46 70.0 14.0407 19.7758 0 
263 1 0.46 70.0 14.519 19.7719 0 
189 1 0.46 70.0 15.0291 19.7649 0 
58 1 0.46 70.0 15.607 19.727 0 
