# LAMMPS data file for rigid bodies

303 atoms

1 atom types

0.0 	 20.0 	 xlo xhi 
0.0 	 20.0 	 ylo yhi 
-1.0 	 1.0 	 zlo zhi 

Atoms

24 1 0.46 70.0 9.80151 13.2519 0 
71 1 0.46 70.0 8.74856 13.6879 0 
127 1 0.46 70.0 9.37992 13.6563 0 
26 1 0.46 70.0 10.1444 13.7091 0 
250 1 0.46 70.0 10.7341 13.5694 0 
101 1 0.46 70.0 7.40177 14.1696 0 
89 1 0.46 70.0 8.1081 13.7873 0 
142 1 0.46 70.0 9.10087 14.1451 0 
175 1 0.46 70.0 9.66696 14.1379 0 
15 1 0.46 70.0 10.196 14.2224 0 
246 1 0.46 70.0 10.7185 14.1443 0 
103 1 0.46 70.0 11.2494 13.9453 0 
65 1 0.46 70.0 11.8334 13.8234 0 
136 1 0.46 70.0 12.8891 14.167 0 
81 1 0.46 70.0 6.76849 14.5446 0 
226 1 0.46 70.0 7.95237 14.3484 0 
92 1 0.46 70.0 8.50398 14.2444 0 
238 1 0.46 70.0 8.86577 14.6104 0 
124 1 0.46 70.0 9.38 14.6045 0 
179 1 0.46 70.0 9.86937 14.6453 0 
21 1 0.46 70.0 10.8324 14.6422 0 
303 1 0.46 70.0 11.292 14.5 0 
129 1 0.46 70.0 11.789 14.4025 0 
151 1 0.46 70.0 12.3136 14.2602 0 
84 1 0.46 70.0 13.3005 14.6336 0 
80 1 0.46 70.0 6.40772 15.0276 0 
16 1 0.46 70.0 7.2976 14.7428 0 
278 1 0.46 70.0 7.79897 14.8525 0 
110 1 0.46 70.0 8.29899 14.7896 0 
291 1 0.46 70.0 8.68834 15.0552 0 
204 1 0.46 70.0 9.16856 15.0535 0 
66 1 0.46 70.0 9.63935 15.0815 0 
134 1 0.46 70.0 10.1189 15.1093 0 
75 1 0.46 70.0 10.3596 14.684 0 
94 1 0.46 70.0 10.62 15.0991 0 
217 1 0.46 70.0 11.1324 15.0387 0 
158 1 0.46 70.0 11.631 14.9228 0 
300 1 0.46 70.0 12.156 14.8237 0 
154 1 0.46 70.0 12.6997 14.7355 0 
235 1 0.46 70.0 13.7043 15.0809 0 
277 1 0.46 70.0 5.79488 15.3592 0 
52 1 0.46 70.0 6.97003 15.1786 0 
100 1 0.46 70.0 7.50102 15.2781 0 
121 1 0.46 70.0 8.01622 15.306 0 
106 1 0.46 70.0 8.45279 15.4492 0 
183 1 0.46 70.0 8.92508 15.4811 0 
126 1 0.46 70.0 9.38344 15.4997 0 
113 1 0.46 70.0 9.841 15.5244 0 
227 1 0.46 70.0 10.2978 15.5383 0 
11 1 0.46 70.0 10.7524 15.5362 0 
210 1 0.46 70.0 11.2045 15.4928 0 
297 1 0.46 70.0 11.6521 15.4028 0 
104 1 0.46 70.0 12.1063 15.3243 0 
174 1 0.46 70.0 12.5893 15.2505 0 
29 1 0.46 70.0 13.1132 15.1749 0 
160 1 0.46 70.0 14.0379 15.5485 0 
50 1 0.46 70.0 5.46313 15.8885 0 
7 1 0.46 70.0 6.31393 15.5751 0 
91 1 0.46 70.0 6.81196 15.6641 0 
156 1 0.46 70.0 7.29361 15.7211 0 
27 1 0.46 70.0 7.77146 15.7471 0 
32 1 0.46 70.0 8.22042 15.8447 0 
23 1 0.46 70.0 8.68868 15.8795 0 
74 1 0.46 70.0 9.15064 15.9028 0 
301 1 0.46 70.0 9.60926 15.9253 0 
51 1 0.46 70.0 10.068 15.9475 0 
257 1 0.46 70.0 10.5265 15.951 0 
61 1 0.46 70.0 10.9876 15.9292 0 
153 1 0.46 70.0 11.4571 15.8779 0 
138 1 0.46 70.0 11.9217 15.8078 0 
271 1 0.46 70.0 12.3981 15.7399 0 
155 1 0.46 70.0 12.8981 15.6734 0 
73 1 0.46 70.0 13.4391 15.614 0 
294 1 0.46 70.0 14.7465 15.8946 0 
1 1 0.46 70.0 5.15431 16.3934 0 
280 1 0.46 70.0 6.01452 16.0164 0 
96 1 0.46 70.0 6.53798 16.0971 0 
299 1 0.46 70.0 7.03953 16.1455 0 
55 1 0.46 70.0 7.52096 16.1767 0 
123 1 0.46 70.0 7.97704 16.2344 0 
2 1 0.46 70.0 8.44141 16.2667 0 
232 1 0.46 70.0 8.90177 16.2891 0 
40 1 0.46 70.0 9.36091 16.3108 0 
90 1 0.46 70.0 9.8209 16.3331 0 
135 1 0.46 70.0 10.2944 16.3478 0 
143 1 0.46 70.0 10.7735 16.3356 0 
208 1 0.46 70.0 11.2553 16.2982 0 
282 1 0.46 70.0 11.725 16.2527 0 
295 1 0.46 70.0 12.1934 16.2005 0 
289 1 0.46 70.0 12.6704 16.1462 0 
180 1 0.46 70.0 13.1669 16.0939 0 
203 1 0.46 70.0 13.6905 16.073 0 
119 1 0.46 70.0 14.2149 16.0683 0 
206 1 0.46 70.0 5.73284 16.4632 0 
274 1 0.46 70.0 6.26583 16.5193 0 
199 1 0.46 70.0 6.78036 16.5549 0 
88 1 0.46 70.0 7.26817 16.5882 0 
58 1 0.46 70.0 7.7315 16.6268 0 
5 1 0.46 70.0 8.19233 16.6522 0 
20 1 0.46 70.0 8.65178 16.6738 0 
244 1 0.46 70.0 9.11046 16.6946 0 
87 1 0.46 70.0 9.56918 16.7143 0 
262 1 0.46 70.0 10.0435 16.7292 0 
9 1 0.46 70.0 10.545 16.7283 0 
118 1 0.46 70.0 11.0448 16.7014 0 
42 1 0.46 70.0 11.5258 16.6664 0 
189 1 0.46 70.0 11.9909 16.6302 0 
105 1 0.46 70.0 12.4573 16.5946 0 
245 1 0.46 70.0 12.9326 16.5509 0 
62 1 0.46 70.0 13.4311 16.5145 0 
157 1 0.46 70.0 13.9771 16.5475 0 
242 1 0.46 70.0 14.5237 16.5243 0 
171 1 0.46 70.0 15.0982 16.467 0 
67 1 0.46 70.0 4.85036 16.8927 0 
13 1 0.46 70.0 5.45541 16.9122 0 
192 1 0.46 70.0 5.99757 16.9442 0 
222 1 0.46 70.0 6.52435 16.9579 0 
109 1 0.46 70.0 7.01665 16.9879 0 
255 1 0.46 70.0 7.48433 17.0196 0 
70 1 0.46 70.0 7.94363 17.0383 0 
85 1 0.46 70.0 8.40185 17.0581 0 
130 1 0.46 70.0 8.8595 17.0776 0 
93 1 0.46 70.0 9.31811 17.0954 0 
266 1 0.46 70.0 9.78828 17.1056 0 
41 1 0.46 70.0 10.2936 17.1018 0 
33 1 0.46 70.0 10.8178 17.0882 0 
247 1 0.46 70.0 11.3166 17.0675 0 
176 1 0.46 70.0 11.79 17.0415 0 
275 1 0.46 70.0 12.252 17.0154 0 
252 1 0.46 70.0 12.7151 16.991 0 
259 1 0.46 70.0 13.1875 16.9534 0 
269 1 0.46 70.0 13.6823 16.9298 0 
281 1 0.46 70.0 13.9332 17.326 0 
205 1 0.46 70.0 14.2884 17.01 0 
4 1 0.46 70.0 14.8317 17.0057 0 
163 1 0.46 70.0 15.4615 17.0184 0 
44 1 0.46 70.0 4.55431 17.4094 0 
194 1 0.46 70.0 5.18544 17.3669 0 
117 1 0.46 70.0 5.73171 17.3764 0 
272 1 0.46 70.0 6.03671 17.7581 0 
184 1 0.46 70.0 6.27593 17.3587 0 
292 1 0.46 70.0 6.53224 17.7774 0 
60 1 0.46 70.0 6.77094 17.383 0 
57 1 0.46 70.0 7.23939 17.4108 0 
283 1 0.46 70.0 7.69787 17.4268 0 
152 1 0.46 70.0 8.15309 17.4439 0 
181 1 0.46 70.0 8.60436 17.4624 0 
302 1 0.46 70.0 9.0499 17.4829 0 
209 1 0.46 70.0 9.48813 17.5039 0 
173 1 0.46 70.0 9.91876 17.5224 0 
47 1 0.46 70.0 10.3412 17.5319 0 
261 1 0.46 70.0 10.7617 17.5185 0 
140 1 0.46 70.0 11.191 17.4906 0 
49 1 0.46 70.0 11.6312 17.4621 0 
276 1 0.46 70.0 12.0791 17.4367 0 
237 1 0.46 70.0 12.5314 17.4124 0 
188 1 0.46 70.0 12.9875 17.3877 0 
83 1 0.46 70.0 13.4464 17.3578 0 
223 1 0.46 70.0 13.6963 17.7606 0 
273 1 0.46 70.0 14.1755 17.7168 0 
298 1 0.46 70.0 14.5987 17.497 0 
296 1 0.46 70.0 15.1419 17.4855 0 
28 1 0.46 70.0 4.22259 17.944 0 
229 1 0.46 70.0 4.92873 17.8323 0 
132 1 0.46 70.0 5.4669 17.8243 0 
236 1 0.46 70.0 5.80817 18.1572 0 
128 1 0.46 70.0 6.29897 18.1737 0 
112 1 0.46 70.0 6.99953 17.8026 0 
78 1 0.46 70.0 6.76379 18.1963 0 
115 1 0.46 70.0 7.45758 17.8169 0 
36 1 0.46 70.0 7.2216 18.2082 0 
221 1 0.46 70.0 7.91197 17.8315 0 
224 1 0.46 70.0 7.6759 18.2202 0 
122 1 0.46 70.0 8.36249 17.8482 0 
48 1 0.46 70.0 8.80854 17.8671 0 
249 1 0.46 70.0 9.24994 17.8876 0 
169 1 0.46 70.0 9.68686 17.9075 0 
256 1 0.46 70.0 10.1226 17.9209 0 
230 1 0.46 70.0 10.5592 17.9186 0 
218 1 0.46 70.0 10.9958 17.8983 0 
34 1 0.46 70.0 11.435 17.8716 0 
211 1 0.46 70.0 11.879 17.8464 0 
219 1 0.46 70.0 12.3282 17.8242 0 
19 1 0.46 70.0 12.7814 17.8068 0 
3 1 0.46 70.0 12.5694 18.2139 0 
240 1 0.46 70.0 13.2375 17.7881 0 
285 1 0.46 70.0 13.0245 18.2003 0 
186 1 0.46 70.0 13.4828 18.1857 0 
64 1 0.46 70.0 13.9546 18.1572 0 
284 1 0.46 70.0 14.4552 18.0889 0 
191 1 0.46 70.0 14.9424 17.9758 0 
241 1 0.46 70.0 15.5511 17.8856 0 
125 1 0.46 70.0 4.66208 18.2897 0 
116 1 0.46 70.0 5.1975 18.3001 0 
267 1 0.46 70.0 5.58994 18.5606 0 
133 1 0.46 70.0 6.06988 18.5747 0 
196 1 0.46 70.0 6.53083 18.5917 0 
258 1 0.46 70.0 6.98833 18.6004 0 
263 1 0.46 70.0 7.44286 18.6099 0 
68 1 0.46 70.0 7.89441 18.6213 0 
200 1 0.46 70.0 8.12677 18.2344 0 
144 1 0.46 70.0 8.34308 18.6347 0 
164 1 0.46 70.0 8.57412 18.2509 0 
162 1 0.46 70.0 8.78912 18.6501 0 
268 1 0.46 70.0 9.01797 18.2692 0 
6 1 0.46 70.0 9.45852 18.2883 0 
10 1 0.46 70.0 9.89917 18.3029 0 
25 1 0.46 70.0 10.3414 18.3067 0 
69 1 0.46 70.0 10.7839 18.296 0 
201 1 0.46 70.0 11.227 18.2757 0 
166 1 0.46 70.0 11.457 18.6533 0 
197 1 0.46 70.0 11.6714 18.2528 0 
18 1 0.46 70.0 11.9045 18.6347 0 
99 1 0.46 70.0 12.1186 18.2315 0 
193 1 0.46 70.0 12.3543 18.6181 0 
107 1 0.46 70.0 12.8071 18.6044 0 
182 1 0.46 70.0 13.2638 18.5931 0 
141 1 0.46 70.0 13.7283 18.579 0 
231 1 0.46 70.0 14.218 18.5427 0 
168 1 0.46 70.0 14.7295 18.4877 0 
8 1 0.46 70.0 15.2691 18.4124 0 
270 1 0.46 70.0 15.8848 18.4098 0 
265 1 0.46 70.0 4.24915 18.6681 0 
293 1 0.46 70.0 4.85512 18.7728 0 
150 1 0.46 70.0 5.31793 18.9309 0 
77 1 0.46 70.0 5.82404 18.9784 0 
233 1 0.46 70.0 6.29619 18.9871 0 
59 1 0.46 70.0 6.75511 18.9933 0 
177 1 0.46 70.0 7.2109 19.0007 0 
79 1 0.46 70.0 7.66356 19.0093 0 
185 1 0.46 70.0 8.11346 19.0194 0 
220 1 0.46 70.0 8.56099 19.0312 0 
190 1 0.46 70.0 9.23295 18.6668 0 
56 1 0.46 70.0 9.00663 19.0446 0 
243 1 0.46 70.0 9.67529 18.6819 0 
98 1 0.46 70.0 9.45054 19.0588 0 
170 1 0.46 70.0 10.1197 18.6889 0 
212 1 0.46 70.0 9.89607 19.0677 0 
198 1 0.46 70.0 10.5654 18.6851 0 
97 1 0.46 70.0 10.3431 19.0683 0 
120 1 0.46 70.0 11.0107 18.6714 0 
35 1 0.46 70.0 10.7897 19.0598 0 
72 1 0.46 70.0 11.2377 19.0468 0 
213 1 0.46 70.0 11.6863 19.0324 0 
31 1 0.46 70.0 12.1361 19.0183 0 
14 1 0.46 70.0 12.5879 19.0059 0 
260 1 0.46 70.0 13.0428 18.9955 0 
228 1 0.46 70.0 13.5012 18.9864 0 
76 1 0.46 70.0 13.9761 18.9684 0 
63 1 0.46 70.0 14.4744 18.9393 0 
172 1 0.46 70.0 14.9999 18.8986 0 
39 1 0.46 70.0 15.5722 18.8947 0 
225 1 0.46 70.0 3.9234 19.1817 0 
167 1 0.46 70.0 4.52768 19.2055 0 
216 1 0.46 70.0 5.04228 19.3246 0 
22 1 0.46 70.0 5.56007 19.3671 0 
279 1 0.46 70.0 6.05651 19.3842 0 
114 1 0.46 70.0 6.52207 19.3872 0 
147 1 0.46 70.0 6.97934 19.3925 0 
46 1 0.46 70.0 7.4334 19.3986 0 
286 1 0.46 70.0 7.88457 19.4057 0 
254 1 0.46 70.0 8.33334 19.4138 0 
187 1 0.46 70.0 8.78035 19.4231 0 
45 1 0.46 70.0 9.22633 19.4339 0 
264 1 0.46 70.0 9.6716 19.4439 0 
139 1 0.46 70.0 10.1198 19.4469 0 
215 1 0.46 70.0 10.5685 19.4434 0 
290 1 0.46 70.0 11.0162 19.4339 0 
159 1 0.46 70.0 11.4653 19.424 0 
12 1 0.46 70.0 11.9153 19.4136 0 
248 1 0.46 70.0 12.3668 19.4039 0 
165 1 0.46 70.0 12.8204 19.3953 0 
54 1 0.46 70.0 13.2771 19.3878 0 
148 1 0.46 70.0 13.7382 19.3798 0 
239 1 0.46 70.0 14.2201 19.3654 0 
234 1 0.46 70.0 14.726 19.3487 0 
161 1 0.46 70.0 15.2613 19.3305 0 
207 1 0.46 70.0 15.9794 19.3209 0 
53 1 0.46 70.0 4.22513 19.6895 0 
95 1 0.46 70.0 4.77406 19.7443 0 
146 1 0.46 70.0 5.30541 19.7718 0 
251 1 0.46 70.0 5.8109 19.777 0 
43 1 0.46 70.0 6.289 19.7818 0 
253 1 0.46 70.0 6.74806 19.7856 0 
102 1 0.46 70.0 7.20362 19.7895 0 
111 1 0.46 70.0 7.65609 19.7939 0 
287 1 0.46 70.0 8.10592 19.7989 0 
202 1 0.46 70.0 8.55367 19.8043 0 
17 1 0.46 70.0 8.99991 19.8103 0 
214 1 0.46 70.0 9.44536 19.8182 0 
131 1 0.46 70.0 9.8944 19.8214 0 
37 1 0.46 70.0 10.3446 19.8212 0 
149 1 0.46 70.0 10.7934 19.816 0 
30 1 0.46 70.0 11.2427 19.8101 0 
86 1 0.46 70.0 11.6928 19.8039 0 
178 1 0.46 70.0 12.1439 19.7978 0 
195 1 0.46 70.0 12.5966 19.792 0 
82 1 0.46 70.0 13.0516 19.7867 0 
137 1 0.46 70.0 13.5092 19.7822 0 
288 1 0.46 70.0 13.9741 19.7774 0 
38 1 0.46 70.0 14.4635 19.7735 0 
108 1 0.46 70.0 14.9871 19.7694 0 
145 1 0.46 70.0 15.5788 19.7298 0 
