# LAMMPS data file for rigid bodies

303 atoms

1 atom types

0.0 	 20.0 	 xlo xhi 
0.0 	 20.0 	 ylo yhi 
-1.0 	 1.0 	 zlo zhi 

Atoms

160 1 0.46 70.0 9.02404 13.5701 0 
227 1 0.46 70.0 9.65585 13.5218 0 
150 1 0.46 70.0 10.3487 13.4455 0 
84 1 0.46 70.0 10.9699 13.5362 0 
9 1 0.46 70.0 11.6083 13.6323 0 
206 1 0.46 70.0 7.73128 14.1325 0 
288 1 0.46 70.0 8.34481 13.7976 0 
242 1 0.46 70.0 8.84745 14.1151 0 
66 1 0.46 70.0 9.412 14.056 0 
115 1 0.46 70.0 10.062 13.9405 0 
283 1 0.46 70.0 10.62 14.0081 0 
183 1 0.46 70.0 11.1617 14.0963 0 
36 1 0.46 70.0 11.6936 14.191 0 
236 1 0.46 70.0 12.2372 14.1171 0 
112 1 0.46 70.0 12.8343 14.1817 0 
200 1 0.46 70.0 6.73431 14.4925 0 
62 1 0.46 70.0 7.3091 14.5777 0 
151 1 0.46 70.0 8.26261 14.3734 0 
163 1 0.46 70.0 8.73396 14.6166 0 
109 1 0.46 70.0 9.22899 14.5594 0 
118 1 0.46 70.0 9.83051 14.3889 0 
167 1 0.46 70.0 10.3594 14.4566 0 
42 1 0.46 70.0 10.8687 14.538 0 
50 1 0.46 70.0 11.3763 14.626 0 
56 1 0.46 70.0 6.35728 14.9904 0 
192 1 0.46 70.0 6.96299 15.0529 0 
99 1 0.46 70.0 7.81817 14.7409 0 
119 1 0.46 70.0 8.28493 14.922 0 
252 1 0.46 70.0 8.73574 15.0911 0 
270 1 0.46 70.0 9.19484 15.0944 0 
35 1 0.46 70.0 9.63723 14.8176 0 
257 1 0.46 70.0 10.1221 14.8791 0 
179 1 0.46 70.0 10.6122 14.9571 0 
55 1 0.46 70.0 11.102 15.0396 0 
181 1 0.46 70.0 11.9006 14.6779 0 
148 1 0.46 70.0 11.6068 15.105 0 
29 1 0.46 70.0 12.4178 14.6783 0 
128 1 0.46 70.0 12.9549 14.7445 0 
101 1 0.46 70.0 13.5269 14.6849 0 
53 1 0.46 70.0 6.0272 15.4777 0 
113 1 0.46 70.0 6.64993 15.4952 0 
21 1 0.46 70.0 7.47908 15.1614 0 
127 1 0.46 70.0 7.95482 15.3046 0 
31 1 0.46 70.0 8.41377 15.4464 0 
2 1 0.46 70.0 8.88523 15.5344 0 
289 1 0.46 70.0 9.61769 15.2746 0 
166 1 0.46 70.0 10.0702 15.335 0 
261 1 0.46 70.0 10.5195 15.4068 0 
86 1 0.46 70.0 10.9682 15.4791 0 
102 1 0.46 70.0 11.4206 15.537 0 
271 1 0.46 70.0 12.1186 15.152 0 
139 1 0.46 70.0 12.6306 15.1912 0 
129 1 0.46 70.0 13.1816 15.232 0 
24 1 0.46 70.0 13.7596 15.2285 0 
97 1 0.46 70.0 5.37593 15.6273 0 
249 1 0.46 70.0 6.36781 15.9295 0 
152 1 0.46 70.0 6.88722 15.9988 0 
245 1 0.46 70.0 7.17501 15.5842 0 
229 1 0.46 70.0 7.65817 15.6963 0 
126 1 0.46 70.0 8.12331 15.8149 0 
49 1 0.46 70.0 8.59022 15.9062 0 
13 1 0.46 70.0 9.33148 15.6305 0 
4 1 0.46 70.0 9.04544 15.9898 0 
60 1 0.46 70.0 9.78696 15.7102 0 
90 1 0.46 70.0 10.2396 15.7822 0 
89 1 0.46 70.0 10.6913 15.8547 0 
95 1 0.46 70.0 11.144 15.9265 0 
278 1 0.46 70.0 11.8771 15.5836 0 
134 1 0.46 70.0 11.5986 15.9896 0 
215 1 0.46 70.0 12.3456 15.6255 0 
248 1 0.46 70.0 12.8361 15.6653 0 
158 1 0.46 70.0 13.3457 15.7197 0 
85 1 0.46 70.0 13.8692 15.7631 0 
281 1 0.46 70.0 14.3987 15.5729 0 
141 1 0.46 70.0 5.29902 16.3257 0 
228 1 0.46 70.0 5.78237 16.0153 0 
71 1 0.46 70.0 6.1306 16.3778 0 
146 1 0.46 70.0 6.62254 16.4178 0 
144 1 0.46 70.0 7.37178 16.0883 0 
48 1 0.46 70.0 7.83883 16.1844 0 
284 1 0.46 70.0 8.30216 16.2703 0 
244 1 0.46 70.0 8.75779 16.3457 0 
107 1 0.46 70.0 9.21122 16.419 0 
143 1 0.46 70.0 9.49837 16.0656 0 
137 1 0.46 70.0 9.95132 16.1392 0 
301 1 0.46 70.0 10.4031 16.212 0 
202 1 0.46 70.0 10.8538 16.2846 0 
231 1 0.46 70.0 11.3047 16.3578 0 
74 1 0.46 70.0 11.7567 16.429 0 
157 1 0.46 70.0 12.0554 16.042 0 
239 1 0.46 70.0 12.5248 16.0809 0 
197 1 0.46 70.0 13.0136 16.1316 0 
3 1 0.46 70.0 13.5304 16.1941 0 
180 1 0.46 70.0 14.0934 16.2311 0 
250 1 0.46 70.0 14.6664 16.1328 0 
1 1 0.46 70.0 5.02918 16.8314 0 
45 1 0.46 70.0 5.74603 16.6879 0 
282 1 0.46 70.0 6.31522 16.8287 0 
63 1 0.46 70.0 6.80382 16.8812 0 
237 1 0.46 70.0 7.09635 16.4845 0 
5 1 0.46 70.0 7.55904 16.5587 0 
225 1 0.46 70.0 8.01703 16.6318 0 
132 1 0.46 70.0 8.47117 16.7016 0 
11 1 0.46 70.0 8.92499 16.772 0 
185 1 0.46 70.0 9.66377 16.4925 0 
145 1 0.46 70.0 9.37789 16.8436 0 
293 1 0.46 70.0 10.1155 16.5659 0 
51 1 0.46 70.0 10.566 16.6393 0 
34 1 0.46 70.0 11.0148 16.7131 0 
104 1 0.46 70.0 11.4633 16.7875 0 
191 1 0.46 70.0 11.912 16.861 0 
155 1 0.46 70.0 12.2118 16.4833 0 
70 1 0.46 70.0 12.6705 16.525 0 
116 1 0.46 70.0 13.1432 16.587 0 
274 1 0.46 70.0 13.6182 16.6626 0 
267 1 0.46 70.0 14.0968 16.7289 0 
15 1 0.46 70.0 14.6025 16.6961 0 
61 1 0.46 70.0 15.1672 16.6575 0 
73 1 0.46 70.0 4.68092 17.2957 0 
280 1 0.46 70.0 5.49812 17.1176 0 
93 1 0.46 70.0 6.01019 17.1964 0 
254 1 0.46 70.0 6.51299 17.2775 0 
130 1 0.46 70.0 6.9856 17.3215 0 
279 1 0.46 70.0 7.27215 16.9373 0 
243 1 0.46 70.0 7.73063 16.9948 0 
135 1 0.46 70.0 8.18521 17.059 0 
211 1 0.46 70.0 8.63941 17.1252 0 
8 1 0.46 70.0 9.09272 17.1935 0 
186 1 0.46 70.0 9.54417 17.2647 0 
184 1 0.46 70.0 9.82918 16.9166 0 
277 1 0.46 70.0 10.2794 16.9904 0 
40 1 0.46 70.0 10.7276 17.0651 0 
23 1 0.46 70.0 11.1748 17.1409 0 
120 1 0.46 70.0 11.6214 17.2166 0 
269 1 0.46 70.0 12.3642 16.9166 0 
268 1 0.46 70.0 12.0683 17.2911 0 
294 1 0.46 70.0 12.8205 16.9597 0 
117 1 0.46 70.0 13.292 17.0425 0 
12 1 0.46 70.0 13.7764 17.1275 0 
165 1 0.46 70.0 14.2933 17.1884 0 
83 1 0.46 70.0 14.8244 17.2033 0 
300 1 0.46 70.0 15.4033 17.2485 0 
264 1 0.46 70.0 5.19815 17.5162 0 
195 1 0.46 70.0 5.73084 17.6026 0 
212 1 0.46 70.0 6.22692 17.6632 0 
87 1 0.46 70.0 6.70455 17.7148 0 
81 1 0.46 70.0 7.44548 17.3642 0 
246 1 0.46 70.0 7.16353 17.7451 0 
108 1 0.46 70.0 7.90105 17.4195 0 
272 1 0.46 70.0 8.35518 17.4801 0 
98 1 0.46 70.0 8.80895 17.5435 0 
290 1 0.46 70.0 9.2613 17.611 0 
43 1 0.46 70.0 9.7113 17.6829 0 
44 1 0.46 70.0 9.9945 17.3381 0 
32 1 0.46 70.0 10.1596 17.7577 0 
75 1 0.46 70.0 10.443 17.4133 0 
26 1 0.46 70.0 10.8892 17.4904 0 
216 1 0.46 70.0 11.3341 17.5687 0 
302 1 0.46 70.0 11.7786 17.646 0 
172 1 0.46 70.0 12.2241 17.7204 0 
22 1 0.46 70.0 12.5186 17.3466 0 
198 1 0.46 70.0 12.6738 17.7736 0 
175 1 0.46 70.0 12.9737 17.3908 0 
59 1 0.46 70.0 13.4531 17.4886 0 
96 1 0.46 70.0 13.9528 17.571 0 
20 1 0.46 70.0 14.4788 17.6516 0 
38 1 0.46 70.0 15.0188 17.7143 0 
199 1 0.46 70.0 4.36465 17.7987 0 
251 1 0.46 70.0 4.91471 17.9397 0 
68 1 0.46 70.0 5.44836 18.0071 0 
136 1 0.46 70.0 5.95085 18.0637 0 
105 1 0.46 70.0 6.4271 18.1087 0 
169 1 0.46 70.0 6.88584 18.1387 0 
213 1 0.46 70.0 7.34225 18.1649 0 
147 1 0.46 70.0 7.61977 17.7863 0 
82 1 0.46 70.0 7.79569 18.2041 0 
10 1 0.46 70.0 8.0733 17.8389 0 
275 1 0.46 70.0 8.52668 17.8952 0 
19 1 0.46 70.0 8.97954 17.957 0 
33 1 0.46 70.0 9.42974 18.0251 0 
58 1 0.46 70.0 9.87805 18.0989 0 
110 1 0.46 70.0 10.3226 18.1764 0 
76 1 0.46 70.0 10.6056 17.835 0 
133 1 0.46 70.0 11.0495 17.9163 0 
260 1 0.46 70.0 11.492 17.9976 0 
92 1 0.46 70.0 11.935 18.0758 0 
201 1 0.46 70.0 12.3796 18.149 0 
188 1 0.46 70.0 12.8294 18.1975 0 
77 1 0.46 70.0 13.1288 17.817 0 
205 1 0.46 70.0 13.6205 17.9244 0 
234 1 0.46 70.0 14.1241 18.0112 0 
258 1 0.46 70.0 14.6606 18.122 0 
209 1 0.46 70.0 15.6057 17.8261 0 
156 1 0.46 70.0 4.02187 18.3239 0 
18 1 0.46 70.0 4.61603 18.3795 0 
226 1 0.46 70.0 5.16708 18.4243 0 
69 1 0.46 70.0 5.67514 18.4693 0 
121 1 0.46 70.0 6.15569 18.5095 0 
25 1 0.46 70.0 6.6145 18.5412 0 
303 1 0.46 70.0 7.07069 18.5572 0 
189 1 0.46 70.0 7.52367 18.5806 0 
174 1 0.46 70.0 7.97367 18.6167 0 
94 1 0.46 70.0 8.24751 18.2518 0 
111 1 0.46 70.0 8.42383 18.6577 0 
7 1 0.46 70.0 8.69989 18.3042 0 
207 1 0.46 70.0 9.15177 18.3664 0 
285 1 0.46 70.0 9.59934 18.4365 0 
27 1 0.46 70.0 10.043 18.5152 0 
224 1 0.46 70.0 10.4803 18.5965 0 
78 1 0.46 70.0 10.7639 18.2559 0 
142 1 0.46 70.0 11.2072 18.3441 0 
122 1 0.46 70.0 11.649 18.4276 0 
273 1 0.46 70.0 12.0917 18.5058 0 
124 1 0.46 70.0 12.5342 18.5771 0 
233 1 0.46 70.0 13.285 18.2382 0 
223 1 0.46 70.0 12.9848 18.6184 0 
177 1 0.46 70.0 13.4414 18.6549 0 
80 1 0.46 70.0 13.791 18.3592 0 
39 1 0.46 70.0 14.2982 18.4489 0 
220 1 0.46 70.0 14.8011 18.6281 0 
16 1 0.46 70.0 15.184 18.237 0 
57 1 0.46 70.0 15.7573 18.4144 0 
187 1 0.46 70.0 4.2969 18.8464 0 
79 1 0.46 70.0 4.88424 18.8526 0 
28 1 0.46 70.0 5.40208 18.8863 0 
65 1 0.46 70.0 5.88716 18.9167 0 
88 1 0.46 70.0 6.34915 18.945 0 
106 1 0.46 70.0 6.80587 18.9594 0 
190 1 0.46 70.0 7.25893 18.9721 0 
72 1 0.46 70.0 7.7085 18.9922 0 
162 1 0.46 70.0 8.15546 19.0222 0 
218 1 0.46 70.0 8.87484 18.7071 0 
196 1 0.46 70.0 8.60261 19.0566 0 
100 1 0.46 70.0 9.32558 18.7732 0 
219 1 0.46 70.0 9.05118 19.1034 0 
217 1 0.46 70.0 9.76679 18.8483 0 
47 1 0.46 70.0 10.2013 18.9365 0 
265 1 0.46 70.0 10.62 19.0215 0 
299 1 0.46 70.0 10.9155 18.6756 0 
14 1 0.46 70.0 11.0565 19.0822 0 
123 1 0.46 70.0 11.365 18.774 0 
276 1 0.46 70.0 11.809 18.8578 0 
173 1 0.46 70.0 12.2516 18.9438 0 
235 1 0.46 70.0 12.7017 18.9977 0 
222 1 0.46 70.0 13.1591 19.0303 0 
214 1 0.46 70.0 13.6161 19.0609 0 
297 1 0.46 70.0 13.9787 18.7941 0 
52 1 0.46 70.0 14.4204 18.9177 0 
153 1 0.46 70.0 15.2878 18.7691 0 
159 1 0.46 70.0 15.8548 19.0073 0 
103 1 0.46 70.0 3.91504 19.2975 0 
266 1 0.46 70.0 4.60432 19.2914 0 
176 1 0.46 70.0 5.13561 19.316 0 
208 1 0.46 70.0 5.62628 19.3363 0 
194 1 0.46 70.0 6.09282 19.3536 0 
138 1 0.46 70.0 6.55039 19.3663 0 
203 1 0.46 70.0 7.00393 19.3732 0 
6 1 0.46 70.0 7.45326 19.3828 0 
193 1 0.46 70.0 7.89865 19.3991 0 
131 1 0.46 70.0 8.34178 19.4209 0 
291 1 0.46 70.0 8.78382 19.4482 0 
170 1 0.46 70.0 9.22804 19.4919 0 
241 1 0.46 70.0 9.50011 19.1821 0 
64 1 0.46 70.0 9.93218 19.2633 0 
247 1 0.46 70.0 10.3322 19.3994 0 
259 1 0.46 70.0 10.7648 19.4306 0 
255 1 0.46 70.0 11.2056 19.4673 0 
41 1 0.46 70.0 11.5567 19.2225 0 
125 1 0.46 70.0 11.9942 19.3189 0 
164 1 0.46 70.0 12.4432 19.3775 0 
256 1 0.46 70.0 12.9015 19.4031 0 
238 1 0.46 70.0 13.3708 19.4307 0 
286 1 0.46 70.0 13.9335 19.3715 0 
262 1 0.46 70.0 14.3913 19.3732 0 
154 1 0.46 70.0 14.8546 19.2002 0 
298 1 0.46 70.0 15.3592 19.2728 0 
17 1 0.46 70.0 16.1545 19.5461 0 
230 1 0.46 70.0 4.29991 19.7211 0 
30 1 0.46 70.0 4.86605 19.7531 0 
240 1 0.46 70.0 5.37495 19.77 0 
91 1 0.46 70.0 5.85071 19.7737 0 
54 1 0.46 70.0 6.30925 19.7766 0 
287 1 0.46 70.0 6.76361 19.7786 0 
114 1 0.46 70.0 7.21339 19.7811 0 
295 1 0.46 70.0 7.65827 19.788 0 
253 1 0.46 70.0 8.09845 19.7995 0 
263 1 0.46 70.0 8.53529 19.8137 0 
37 1 0.46 70.0 8.96958 19.8325 0 
149 1 0.46 70.0 9.6927 19.5941 0 
140 1 0.46 70.0 9.40609 19.8653 0 
46 1 0.46 70.0 10.0725 19.7949 0 
204 1 0.46 70.0 10.5111 19.8052 0 
67 1 0.46 70.0 10.9492 19.8222 0 
221 1 0.46 70.0 11.3954 19.829 0 
210 1 0.46 70.0 11.8023 19.7254 0 
182 1 0.46 70.0 12.2312 19.7823 0 
296 1 0.46 70.0 12.6733 19.789 0 
178 1 0.46 70.0 13.1271 19.7992 0 
168 1 0.46 70.0 13.6519 19.7823 0 
161 1 0.46 70.0 14.1274 19.7824 0 
171 1 0.46 70.0 14.6166 19.7727 0 
292 1 0.46 70.0 15.0864 19.7213 0 
232 1 0.46 70.0 15.6222 19.7207 0 
