# LAMMPS data file for rigid bodies

303 atoms

1 atom types

0.0 	 20.0 	 xlo xhi 
0.0 	 20.0 	 ylo yhi 
-1.0 	 1.0 	 zlo zhi 

Atoms

53 1 0.46 70.0 9.37999 13.2713 0 
44 1 0.46 70.0 10.7231 13.3264 0 
178 1 0.46 70.0 8.3295 13.4808 0 
129 1 0.46 70.0 8.91112 13.6526 0 
84 1 0.46 70.0 9.94623 13.4794 0 
88 1 0.46 70.0 11.3145 13.582 0 
195 1 0.46 70.0 7.854 13.8965 0 
284 1 0.46 70.0 8.46274 14.0486 0 
197 1 0.46 70.0 9.01797 14.1981 0 
173 1 0.46 70.0 9.45988 13.8605 0 
160 1 0.46 70.0 9.96389 14.0849 0 
20 1 0.46 70.0 10.4099 13.7892 0 
186 1 0.46 70.0 10.911 13.9826 0 
27 1 0.46 70.0 11.4029 14.2062 0 
131 1 0.46 70.0 11.8546 13.8433 0 
266 1 0.46 70.0 12.3679 14.1167 0 
136 1 0.46 70.0 6.72537 14.4781 0 
221 1 0.46 70.0 7.44204 14.3117 0 
147 1 0.46 70.0 8.0545 14.4366 0 
130 1 0.46 70.0 8.60564 14.5521 0 
268 1 0.46 70.0 9.53685 14.3913 0 
19 1 0.46 70.0 10.0487 14.5955 0 
18 1 0.46 70.0 10.4773 14.3171 0 
257 1 0.46 70.0 10.9617 14.5211 0 
34 1 0.46 70.0 11.8825 14.4509 0 
296 1 0.46 70.0 12.8664 14.4053 0 
62 1 0.46 70.0 6.32481 14.9855 0 
167 1 0.46 70.0 7.18285 14.7998 0 
63 1 0.46 70.0 7.71794 14.8479 0 
29 1 0.46 70.0 8.24076 14.9353 0 
225 1 0.46 70.0 8.74456 15.0243 0 
262 1 0.46 70.0 9.12885 14.6939 0 
162 1 0.46 70.0 9.63881 14.8747 0 
158 1 0.46 70.0 10.1279 15.0757 0 
297 1 0.46 70.0 10.5402 14.8131 0 
290 1 0.46 70.0 10.9995 15.0255 0 
219 1 0.46 70.0 11.4284 14.747 0 
42 1 0.46 70.0 11.8821 14.9889 0 
89 1 0.46 70.0 12.3519 14.7116 0 
148 1 0.46 70.0 12.8135 14.9899 0 
204 1 0.46 70.0 13.3547 14.7185 0 
140 1 0.46 70.0 13.8496 15.0474 0 
150 1 0.46 70.0 5.58359 15.4034 0 
215 1 0.46 70.0 6.1281 15.5367 0 
264 1 0.46 70.0 6.84784 15.21 0 
106 1 0.46 70.0 7.39903 15.2835 0 
169 1 0.46 70.0 7.90841 15.3317 0 
132 1 0.46 70.0 8.40031 15.4066 0 
269 1 0.46 70.0 8.87514 15.469 0 
142 1 0.46 70.0 9.24591 15.1548 0 
118 1 0.46 70.0 9.73131 15.3363 0 
45 1 0.46 70.0 10.1852 15.541 0 
189 1 0.46 70.0 10.5876 15.2912 0 
234 1 0.46 70.0 11.0194 15.5088 0 
33 1 0.46 70.0 11.4416 15.2536 0 
149 1 0.46 70.0 11.8742 15.4928 0 
207 1 0.46 70.0 12.3279 15.2445 0 
39 1 0.46 70.0 12.7687 15.5182 0 
128 1 0.46 70.0 13.2683 15.291 0 
211 1 0.46 70.0 14.3738 15.4105 0 
157 1 0.46 70.0 5.23843 15.946 0 
95 1 0.46 70.0 6.61973 15.6719 0 
251 1 0.46 70.0 7.11753 15.707 0 
241 1 0.46 70.0 7.60917 15.746 0 
300 1 0.46 70.0 8.08673 15.7895 0 
110 1 0.46 70.0 8.55149 15.8603 0 
43 1 0.46 70.0 9.00063 15.9077 0 
73 1 0.46 70.0 9.35192 15.6013 0 
137 1 0.46 70.0 9.79735 15.7913 0 
8 1 0.46 70.0 10.2134 15.9996 0 
248 1 0.46 70.0 10.6115 15.756 0 
209 1 0.46 70.0 11.0214 15.9738 0 
196 1 0.46 70.0 11.4401 15.7358 0 
185 1 0.46 70.0 11.8568 15.9709 0 
74 1 0.46 70.0 12.3022 15.7439 0 
230 1 0.46 70.0 13.2033 15.818 0 
170 1 0.46 70.0 13.7227 15.6002 0 
285 1 0.46 70.0 14.1767 15.9309 0 
208 1 0.46 70.0 5.80798 16.0151 0 
216 1 0.46 70.0 6.32536 16.0991 0 
85 1 0.46 70.0 6.83523 16.1434 0 
47 1 0.46 70.0 7.32458 16.1629 0 
205 1 0.46 70.0 7.80291 16.1856 0 
187 1 0.46 70.0 8.27618 16.2218 0 
72 1 0.46 70.0 8.82718 16.323 0 
156 1 0.46 70.0 9.42064 16.0528 0 
295 1 0.46 70.0 9.82487 16.2486 0 
139 1 0.46 70.0 10.6201 16.2142 0 
267 1 0.46 70.0 11.0252 16.4315 0 
172 1 0.46 70.0 11.4296 16.1972 0 
227 1 0.46 70.0 11.8377 16.4303 0 
213 1 0.46 70.0 12.2719 16.2178 0 
182 1 0.46 70.0 12.7274 16.014 0 
65 1 0.46 70.0 13.1461 16.3188 0 
276 1 0.46 70.0 13.6386 16.1192 0 
263 1 0.46 70.0 14.0882 16.441 0 
220 1 0.46 70.0 14.6745 16.2404 0 
176 1 0.46 70.0 4.91955 16.4669 0 
16 1 0.46 70.0 5.50717 16.4956 0 
127 1 0.46 70.0 6.03784 16.5358 0 
188 1 0.46 70.0 6.5496 16.5647 0 
94 1 0.46 70.0 7.04622 16.5818 0 
286 1 0.46 70.0 7.52812 16.5885 0 
102 1 0.46 70.0 8.00124 16.5998 0 
78 1 0.46 70.0 8.48219 16.6228 0 
212 1 0.46 70.0 8.99127 16.745 0 
237 1 0.46 70.0 9.37162 16.4953 0 
126 1 0.46 70.0 9.82935 16.6963 0 
210 1 0.46 70.0 10.2293 16.4556 0 
77 1 0.46 70.0 10.6321 16.669 0 
69 1 0.46 70.0 11.0348 16.8859 0 
120 1 0.46 70.0 11.4307 16.6547 0 
46 1 0.46 70.0 11.8357 16.8876 0 
56 1 0.46 70.0 12.2463 16.6764 0 
105 1 0.46 70.0 12.6864 16.485 0 
144 1 0.46 70.0 13.0913 16.8042 0 
253 1 0.46 70.0 13.5663 16.6079 0 
153 1 0.46 70.0 14.5072 16.8084 0 
293 1 0.46 70.0 15.0914 16.7205 0 
245 1 0.46 70.0 4.60943 16.9907 0 
3 1 0.46 70.0 5.21443 16.9789 0 
99 1 0.46 70.0 5.7548 16.9834 0 
278 1 0.46 70.0 6.26948 16.9923 0 
281 1 0.46 70.0 6.76554 16.9962 0 
90 1 0.46 70.0 7.25203 16.9944 0 
302 1 0.46 70.0 7.7234 17.0026 0 
68 1 0.46 70.0 8.18314 17.0147 0 
280 1 0.46 70.0 8.63993 17.0385 0 
135 1 0.46 70.0 9.07329 17.1893 0 
287 1 0.46 70.0 9.44542 16.9387 0 
138 1 0.46 70.0 9.85284 17.1455 0 
192 1 0.46 70.0 10.2387 16.9054 0 
282 1 0.46 70.0 10.6413 17.1191 0 
122 1 0.46 70.0 11.4354 17.1094 0 
22 1 0.46 70.0 12.2371 17.1335 0 
246 1 0.46 70.0 12.6547 16.9428 0 
98 1 0.46 70.0 13.0813 17.3093 0 
301 1 0.46 70.0 13.4751 17.0783 0 
165 1 0.46 70.0 13.9773 16.9247 0 
51 1 0.46 70.0 14.3271 17.3218 0 
25 1 0.46 70.0 14.8575 17.2654 0 
255 1 0.46 70.0 15.4707 17.2819 0 
31 1 0.46 70.0 4.27258 17.5292 0 
193 1 0.46 70.0 4.92663 17.4704 0 
152 1 0.46 70.0 5.47518 17.4461 0 
15 1 0.46 70.0 5.98827 17.4294 0 
115 1 0.46 70.0 6.48067 17.4232 0 
112 1 0.46 70.0 6.96499 17.4097 0 
141 1 0.46 70.0 7.42213 17.4177 0 
12 1 0.46 70.0 7.87028 17.4311 0 
4 1 0.46 70.0 8.30709 17.446 0 
49 1 0.46 70.0 8.72927 17.4696 0 
181 1 0.46 70.0 9.10965 17.6465 0 
119 1 0.46 70.0 9.47558 17.3904 0 
79 1 0.46 70.0 9.87262 17.5953 0 
36 1 0.46 70.0 10.2537 17.3549 0 
82 1 0.46 70.0 10.6493 17.5679 0 
121 1 0.46 70.0 11.0403 17.3363 0 
57 1 0.46 70.0 11.4366 17.5612 0 
303 1 0.46 70.0 11.8314 17.3429 0 
5 1 0.46 70.0 12.2178 17.5888 0 
289 1 0.46 70.0 12.6339 17.3963 0 
291 1 0.46 70.0 13.0275 17.7649 0 
294 1 0.46 70.0 13.4789 17.6865 0 
133 1 0.46 70.0 13.8195 17.3782 0 
67 1 0.46 70.0 14.0602 17.766 0 
101 1 0.46 70.0 14.6052 17.7678 0 
86 1 0.46 70.0 15.1461 17.7553 0 
64 1 0.46 70.0 4.63347 17.958 0 
32 1 0.46 70.0 5.20528 17.924 0 
298 1 0.46 70.0 5.7165 17.8861 0 
151 1 0.46 70.0 6.20522 17.8545 0 
224 1 0.46 70.0 6.49813 18.2038 0 
274 1 0.46 70.0 6.73034 17.8089 0 
226 1 0.46 70.0 6.9631 18.2083 0 
50 1 0.46 70.0 7.20034 17.8171 0 
11 1 0.46 70.0 7.42035 18.2191 0 
40 1 0.46 70.0 7.65903 17.831 0 
180 1 0.46 70.0 8.11739 17.8495 0 
134 1 0.46 70.0 8.58935 17.8838 0 
9 1 0.46 70.0 9.12004 18.0812 0 
235 1 0.46 70.0 9.4991 17.8421 0 
191 1 0.46 70.0 9.88363 18.0446 0 
145 1 0.46 70.0 10.2645 17.8035 0 
190 1 0.46 70.0 10.6542 18.0152 0 
14 1 0.46 70.0 11.0426 17.7832 0 
232 1 0.46 70.0 11.4345 18.0074 0 
240 1 0.46 70.0 11.8303 17.799 0 
71 1 0.46 70.0 12.2702 18.1618 0 
159 1 0.46 70.0 12.5815 17.8442 0 
247 1 0.46 70.0 12.8351 18.2081 0 
97 1 0.46 70.0 13.2895 18.1519 0 
272 1 0.46 70.0 13.7488 18.1134 0 
203 1 0.46 70.0 14.2977 18.158 0 
37 1 0.46 70.0 15.5324 18.1598 0 
113 1 0.46 70.0 4.19058 18.357 0 
70 1 0.46 70.0 4.90922 18.3909 0 
194 1 0.46 70.0 5.43441 18.3735 0 
24 1 0.46 70.0 5.91357 18.3158 0 
233 1 0.46 70.0 6.26953 18.5968 0 
59 1 0.46 70.0 6.72919 18.6015 0 
260 1 0.46 70.0 7.18586 18.6091 0 
163 1 0.46 70.0 7.87402 18.2328 0 
175 1 0.46 70.0 7.6397 18.6195 0 
80 1 0.46 70.0 8.32321 18.2509 0 
254 1 0.46 70.0 8.09086 18.633 0 
35 1 0.46 70.0 8.76259 18.2917 0 
206 1 0.46 70.0 8.5407 18.6531 0 
28 1 0.46 70.0 9.07343 18.6075 0 
292 1 0.46 70.0 9.49602 18.2903 0 
155 1 0.46 70.0 9.89345 18.4813 0 
239 1 0.46 70.0 10.2763 18.2481 0 
52 1 0.46 70.0 10.6666 18.4656 0 
54 1 0.46 70.0 11.0392 18.2257 0 
55 1 0.46 70.0 11.4153 18.4456 0 
103 1 0.46 70.0 11.8272 18.2435 0 
41 1 0.46 70.0 12.183 18.6055 0 
229 1 0.46 70.0 12.6248 18.6025 0 
109 1 0.46 70.0 13.0816 18.5916 0 
108 1 0.46 70.0 13.5371 18.5533 0 
217 1 0.46 70.0 14.0023 18.5329 0 
198 1 0.46 70.0 14.5241 18.5571 0 
26 1 0.46 70.0 14.9012 18.2361 0 
61 1 0.46 70.0 4.54152 18.8008 0 
13 1 0.46 70.0 5.11046 18.8474 0 
265 1 0.46 70.0 5.60401 18.8232 0 
76 1 0.46 70.0 6.03136 18.9832 0 
10 1 0.46 70.0 6.4952 18.9957 0 
38 1 0.46 70.0 6.95267 19.0007 0 
30 1 0.46 70.0 7.40701 19.0079 0 
124 1 0.46 70.0 7.85856 19.0173 0 
96 1 0.46 70.0 8.30812 19.0286 0 
171 1 0.46 70.0 8.76036 19.0278 0 
93 1 0.46 70.0 9.19276 19.0414 0 
123 1 0.46 70.0 9.5087 18.7224 0 
299 1 0.46 70.0 9.92658 18.9066 0 
92 1 0.46 70.0 10.2944 18.6844 0 
218 1 0.46 70.0 11.0522 18.6728 0 
116 1 0.46 70.0 10.6698 18.9217 0 
250 1 0.46 70.0 11.0627 19.0887 0 
6 1 0.46 70.0 11.4953 19.0298 0 
17 1 0.46 70.0 11.7543 18.6783 0 
279 1 0.46 70.0 11.9635 19.0422 0 
117 1 0.46 70.0 12.4075 19.0047 0 
223 1 0.46 70.0 12.8608 18.9941 0 
256 1 0.46 70.0 13.3178 18.9839 0 
114 1 0.46 70.0 13.7761 18.9593 0 
60 1 0.46 70.0 14.2533 18.9504 0 
21 1 0.46 70.0 14.7961 18.9286 0 
236 1 0.46 70.0 15.2377 18.668 0 
83 1 0.46 70.0 15.8583 18.6807 0 
200 1 0.46 70.0 4.12843 19.2227 0 
164 1 0.46 70.0 4.77703 19.2779 0 
1 1 0.46 70.0 5.30441 19.3014 0 
146 1 0.46 70.0 5.76903 19.359 0 
231 1 0.46 70.0 6.25591 19.3875 0 
288 1 0.46 70.0 6.71911 19.393 0 
111 1 0.46 70.0 7.17518 19.398 0 
277 1 0.46 70.0 7.6279 19.4042 0 
100 1 0.46 70.0 8.07783 19.4113 0 
143 1 0.46 70.0 8.52625 19.4149 0 
214 1 0.46 70.0 8.96645 19.4264 0 
238 1 0.46 70.0 9.60974 19.1448 0 
275 1 0.46 70.0 9.39448 19.4737 0 
7 1 0.46 70.0 9.92785 19.4327 0 
199 1 0.46 70.0 10.2876 19.1224 0 
166 1 0.46 70.0 10.3687 19.5111 0 
258 1 0.46 70.0 10.7966 19.4244 0 
249 1 0.46 70.0 11.2908 19.4369 0 
183 1 0.46 70.0 11.7333 19.4185 0 
283 1 0.46 70.0 12.1908 19.4138 0 
66 1 0.46 70.0 12.6407 19.3953 0 
242 1 0.46 70.0 13.0955 19.3866 0 
168 1 0.46 70.0 13.5535 19.3784 0 
91 1 0.46 70.0 14.0189 19.3674 0 
259 1 0.46 70.0 14.5148 19.3528 0 
75 1 0.46 70.0 15.0424 19.3356 0 
270 1 0.46 70.0 15.5359 19.1575 0 
48 1 0.46 70.0 4.44998 19.7092 0 
104 1 0.46 70.0 5.01964 19.7466 0 
222 1 0.46 70.0 5.5253 19.772 0 
271 1 0.46 70.0 6.01342 19.7777 0 
58 1 0.46 70.0 6.48513 19.7848 0 
125 1 0.46 70.0 6.94368 19.7891 0 
177 1 0.46 70.0 7.39825 19.793 0 
154 1 0.46 70.0 7.84954 19.7975 0 
174 1 0.46 70.0 8.29803 19.8009 0 
161 1 0.46 70.0 8.74189 19.8064 0 
179 1 0.46 70.0 9.18436 19.827 0 
23 1 0.46 70.0 9.66337 19.8071 0 
243 1 0.46 70.0 10.1057 19.8349 0 
244 1 0.46 70.0 10.62 19.8349 0 
184 1 0.46 70.0 11.0567 19.8012 0 
228 1 0.46 70.0 11.5123 19.8108 0 
2 1 0.46 70.0 11.9641 19.801 0 
87 1 0.46 70.0 12.4192 19.7956 0 
81 1 0.46 70.0 12.8721 19.7866 0 
107 1 0.46 70.0 13.3276 19.7817 0 
201 1 0.46 70.0 13.7866 19.7785 0 
252 1 0.46 70.0 14.2651 19.7744 0 
261 1 0.46 70.0 14.776 19.7708 0 
273 1 0.46 70.0 15.343 19.7376 0 
202 1 0.46 70.0 15.9089 19.6084 0 
