# LAMMPS data file for rigid bodies

303 atoms

1 atom types

0.0 	 20.0 	 xlo xhi 
0.0 	 20.0 	 ylo yhi 
-1.0 	 1.0 	 zlo zhi 

Atoms

45 1 0.46 70.0 9.38 13.2538 0 
76 1 0.46 70.0 10.0131 13.3319 0 
28 1 0.46 70.0 8.6182 13.5493 0 
82 1 0.46 70.0 9.16645 13.7713 0 
221 1 0.46 70.0 10.62 13.3773 0 
114 1 0.46 70.0 11.2615 13.4216 0 
298 1 0.46 70.0 7.83475 13.9468 0 
86 1 0.46 70.0 8.40762 14.0786 0 
129 1 0.46 70.0 9.71953 13.8276 0 
150 1 0.46 70.0 10.2717 13.8772 0 
190 1 0.46 70.0 10.8166 13.918 0 
144 1 0.46 70.0 11.3672 13.9698 0 
248 1 0.46 70.0 11.9379 13.9974 0 
92 1 0.46 70.0 12.5101 14.1572 0 
148 1 0.46 70.0 7.06155 14.3698 0 
42 1 0.46 70.0 7.62676 14.4834 0 
59 1 0.46 70.0 8.16417 14.5441 0 
5 1 0.46 70.0 8.67065 14.6457 0 
73 1 0.46 70.0 8.92394 14.2231 0 
121 1 0.46 70.0 9.44763 14.2816 0 
125 1 0.46 70.0 9.96917 14.328 0 
124 1 0.46 70.0 10.49 14.3715 0 
292 1 0.46 70.0 11.009 14.4139 0 
267 1 0.46 70.0 11.5499 14.4567 0 
111 1 0.46 70.0 12.096 14.5839 0 
84 1 0.46 70.0 13.1119 14.3666 0 
223 1 0.46 70.0 6.24698 14.8826 0 
301 1 0.46 70.0 6.8306 14.9128 0 
204 1 0.46 70.0 7.37046 14.9585 0 
85 1 0.46 70.0 7.90886 14.9827 0 
218 1 0.46 70.0 8.41281 15.0534 0 
260 1 0.46 70.0 9.18036 14.7055 0 
140 1 0.46 70.0 8.91139 15.1096 0 
170 1 0.46 70.0 9.68027 14.7532 0 
209 1 0.46 70.0 10.1794 14.7955 0 
115 1 0.46 70.0 10.6758 14.8368 0 
178 1 0.46 70.0 11.1798 14.8761 0 
40 1 0.46 70.0 11.6931 14.9267 0 
173 1 0.46 70.0 12.6357 14.7349 0 
4 1 0.46 70.0 13.2226 14.9341 0 
3 1 0.46 70.0 5.92341 15.4164 0 
237 1 0.46 70.0 6.54774 15.4054 0 
274 1 0.46 70.0 7.09644 15.4199 0 
175 1 0.46 70.0 7.65501 15.4025 0 
282 1 0.46 70.0 8.16053 15.4536 0 
88 1 0.46 70.0 8.6528 15.5035 0 
104 1 0.46 70.0 9.13436 15.5483 0 
75 1 0.46 70.0 9.39919 15.1577 0 
281 1 0.46 70.0 9.88542 15.2006 0 
263 1 0.46 70.0 10.368 15.2424 0 
90 1 0.46 70.0 10.8464 15.2825 0 
108 1 0.46 70.0 11.3273 15.3249 0 
134 1 0.46 70.0 11.8171 15.3717 0 
6 1 0.46 70.0 12.2378 15.1176 0 
191 1 0.46 70.0 12.7587 15.2505 0 
100 1 0.46 70.0 13.3218 15.4704 0 
127 1 0.46 70.0 13.8069 15.1335 0 
102 1 0.46 70.0 14.3985 15.5079 0 
294 1 0.46 70.0 5.62726 15.9312 0 
201 1 0.46 70.0 6.27401 15.8693 0 
202 1 0.46 70.0 6.82466 15.8748 0 
177 1 0.46 70.0 7.41334 15.8072 0 
219 1 0.46 70.0 7.91644 15.8478 0 
300 1 0.46 70.0 8.40215 15.8897 0 
60 1 0.46 70.0 8.8778 15.9301 0 
112 1 0.46 70.0 9.34276 15.9689 0 
70 1 0.46 70.0 9.60691 15.5902 0 
253 1 0.46 70.0 10.0764 15.6318 0 
58 1 0.46 70.0 10.5426 15.6741 0 
181 1 0.46 70.0 11.0045 15.7178 0 
99 1 0.46 70.0 11.4704 15.7618 0 
158 1 0.46 70.0 11.943 15.8097 0 
272 1 0.46 70.0 12.3705 15.6243 0 
139 1 0.46 70.0 12.8707 15.7334 0 
135 1 0.46 70.0 13.4051 15.9859 0 
296 1 0.46 70.0 13.8616 15.7342 0 
233 1 0.46 70.0 4.98645 16.1383 0 
222 1 0.46 70.0 6.0208 16.3251 0 
7 1 0.46 70.0 6.55445 16.3233 0 
289 1 0.46 70.0 7.17879 16.2018 0 
255 1 0.46 70.0 7.67343 16.2377 0 
93 1 0.46 70.0 8.1516 16.2744 0 
131 1 0.46 70.0 8.61843 16.3083 0 
207 1 0.46 70.0 9.07868 16.3443 0 
236 1 0.46 70.0 9.53587 16.3843 0 
262 1 0.46 70.0 9.80118 16.01 0 
297 1 0.46 70.0 9.99224 16.426 0 
96 1 0.46 70.0 10.2589 16.0533 0 
285 1 0.46 70.0 10.7151 16.099 0 
11 1 0.46 70.0 11.1704 16.1456 0 
81 1 0.46 70.0 11.6252 16.1931 0 
23 1 0.46 70.0 12.08 16.2404 0 
56 1 0.46 70.0 12.517 16.1141 0 
57 1 0.46 70.0 12.9751 16.1971 0 
230 1 0.46 70.0 13.813 16.3094 0 
49 1 0.46 70.0 14.3305 16.1024 0 
118 1 0.46 70.0 14.8227 16.4427 0 
126 1 0.46 70.0 4.96245 16.8707 0 
226 1 0.46 70.0 5.41681 16.4947 0 
280 1 0.46 70.0 5.81908 16.7929 0 
101 1 0.46 70.0 6.3086 16.7833 0 
273 1 0.46 70.0 6.9395 16.591 0 
27 1 0.46 70.0 7.42698 16.6249 0 
276 1 0.46 70.0 7.89811 16.6565 0 
154 1 0.46 70.0 8.36003 16.6867 0 
196 1 0.46 70.0 8.81811 16.7204 0 
287 1 0.46 70.0 9.27411 16.7573 0 
231 1 0.46 70.0 9.72851 16.7973 0 
229 1 0.46 70.0 10.1825 16.8397 0 
142 1 0.46 70.0 10.4477 16.4704 0 
64 1 0.46 70.0 10.6359 16.8853 0 
279 1 0.46 70.0 10.9022 16.5174 0 
37 1 0.46 70.0 11.3562 16.5654 0 
277 1 0.46 70.0 11.8112 16.6127 0 
193 1 0.46 70.0 12.2821 16.6436 0 
239 1 0.46 70.0 12.737 16.5897 0 
113 1 0.46 70.0 13.3107 16.5159 0 
155 1 0.46 70.0 13.8002 16.8113 0 
152 1 0.46 70.0 14.2867 16.6582 0 
12 1 0.46 70.0 5.45487 17.146 0 
182 1 0.46 70.0 5.99846 17.2454 0 
192 1 0.46 70.0 6.71821 16.9896 0 
15 1 0.46 70.0 7.18411 17.014 0 
188 1 0.46 70.0 7.64523 17.0391 0 
130 1 0.46 70.0 8.10381 17.0663 0 
67 1 0.46 70.0 8.56053 17.0968 0 
295 1 0.46 70.0 9.01526 17.1305 0 
180 1 0.46 70.0 9.46785 17.1677 0 
138 1 0.46 70.0 9.92004 17.2076 0 
199 1 0.46 70.0 10.3721 17.2507 0 
261 1 0.46 70.0 11.0893 16.9348 0 
9 1 0.46 70.0 10.824 17.2983 0 
87 1 0.46 70.0 11.5413 16.984 0 
258 1 0.46 70.0 11.9936 17.0286 0 
36 1 0.46 70.0 12.4479 17.0636 0 
151 1 0.46 70.0 12.9018 17.0152 0 
119 1 0.46 70.0 13.357 16.9713 0 
97 1 0.46 70.0 13.6616 17.3222 0 
266 1 0.46 70.0 14.1405 17.1971 0 
65 1 0.46 70.0 14.6471 17.0694 0 
159 1 0.46 70.0 15.1957 16.9284 0 
165 1 0.46 70.0 4.65348 17.3754 0 
227 1 0.46 70.0 5.17448 17.5738 0 
149 1 0.46 70.0 5.70222 17.641 0 
286 1 0.46 70.0 6.18902 17.7383 0 
174 1 0.46 70.0 6.4488 17.3588 0 
243 1 0.46 70.0 6.92954 17.402 0 
162 1 0.46 70.0 7.39242 17.4231 0 
184 1 0.46 70.0 7.85016 17.4475 0 
195 1 0.46 70.0 8.30584 17.4741 0 
72 1 0.46 70.0 8.75966 17.504 0 
164 1 0.46 70.0 9.21143 17.5379 0 
109 1 0.46 70.0 9.66092 17.5754 0 
270 1 0.46 70.0 10.11 17.6154 0 
107 1 0.46 70.0 10.559 17.6593 0 
291 1 0.46 70.0 11.0088 17.7099 0 
268 1 0.46 70.0 11.277 17.3529 0 
213 1 0.46 70.0 11.4626 17.7758 0 
78 1 0.46 70.0 11.7277 17.4022 0 
211 1 0.46 70.0 12.1847 17.4402 0 
21 1 0.46 70.0 12.6863 17.4471 0 
47 1 0.46 70.0 13.1649 17.3951 0 
210 1 0.46 70.0 13.458 17.7545 0 
136 1 0.46 70.0 13.9592 17.6919 0 
116 1 0.46 70.0 14.4571 17.6069 0 
241 1 0.46 70.0 14.9744 17.5253 0 
13 1 0.46 70.0 15.54 17.4436 0 
160 1 0.46 70.0 4.3401 17.89 0 
254 1 0.46 70.0 4.89091 18.0151 0 
1 1 0.46 70.0 5.43213 18.0584 0 
147 1 0.46 70.0 5.93056 18.1227 0 
24 1 0.46 70.0 6.41958 18.1678 0 
146 1 0.46 70.0 6.67362 17.7843 0 
183 1 0.46 70.0 6.88939 18.1927 0 
206 1 0.46 70.0 7.14075 17.808 0 
166 1 0.46 70.0 7.34794 18.2135 0 
55 1 0.46 70.0 7.59827 17.8298 0 
133 1 0.46 70.0 8.05356 17.8528 0 
38 1 0.46 70.0 8.50677 17.8785 0 
189 1 0.46 70.0 8.95786 17.9083 0 
33 1 0.46 70.0 9.40613 17.9432 0 
157 1 0.46 70.0 9.85244 17.9809 0 
265 1 0.46 70.0 10.296 18.0217 0 
216 1 0.46 70.0 10.7357 18.0674 0 
249 1 0.46 70.0 11.1694 18.1245 0 
20 1 0.46 70.0 11.9195 17.8127 0 
269 1 0.46 70.0 11.5808 18.2181 0 
228 1 0.46 70.0 12.4259 17.8189 0 
110 1 0.46 70.0 12.9643 17.8055 0 
35 1 0.46 70.0 13.324 18.1916 0 
143 1 0.46 70.0 13.7792 18.1352 0 
39 1 0.46 70.0 14.2639 18.0863 0 
176 1 0.46 70.0 14.7752 18.0464 0 
208 1 0.46 70.0 15.3042 18.0141 0 
10 1 0.46 70.0 15.881 17.9929 0 
61 1 0.46 70.0 4.01104 18.4309 0 
275 1 0.46 70.0 4.58823 18.4805 0 
141 1 0.46 70.0 5.15944 18.4822 0 
244 1 0.46 70.0 5.67517 18.5206 0 
168 1 0.46 70.0 6.16849 18.555 0 
225 1 0.46 70.0 6.64197 18.5809 0 
283 1 0.46 70.0 7.1003 18.5989 0 
185 1 0.46 70.0 7.55633 18.6158 0 
187 1 0.46 70.0 7.80355 18.2333 0 
271 1 0.46 70.0 8.00961 18.6332 0 
290 1 0.46 70.0 8.25674 18.2547 0 
171 1 0.46 70.0 8.46062 18.6527 0 
34 1 0.46 70.0 8.70786 18.2795 0 
54 1 0.46 70.0 9.15695 18.3096 0 
2 1 0.46 70.0 9.60324 18.3463 0 
18 1 0.46 70.0 10.0455 18.3858 0 
77 1 0.46 70.0 10.4839 18.4286 0 
235 1 0.46 70.0 10.9175 18.4805 0 
32 1 0.46 70.0 11.3225 18.612 0 
246 1 0.46 70.0 11.7609 18.6311 0 
105 1 0.46 70.0 12.0081 18.2454 0 
250 1 0.46 70.0 12.4388 18.2557 0 
240 1 0.46 70.0 12.2064 18.6451 0 
71 1 0.46 70.0 12.8759 18.2402 0 
232 1 0.46 70.0 12.6584 18.6426 0 
203 1 0.46 70.0 13.1136 18.6226 0 
48 1 0.46 70.0 13.5696 18.5803 0 
94 1 0.46 70.0 14.0401 18.5347 0 
169 1 0.46 70.0 14.5465 18.4994 0 
200 1 0.46 70.0 15.1165 18.5218 0 
17 1 0.46 70.0 15.7125 18.5635 0 
19 1 0.46 70.0 4.21173 18.9988 0 
106 1 0.46 70.0 4.88495 18.9139 0 
46 1 0.46 70.0 5.42053 18.9289 0 
186 1 0.46 70.0 5.92074 18.951 0 
63 1 0.46 70.0 6.39735 18.9713 0 
194 1 0.46 70.0 6.85628 18.9876 0 
14 1 0.46 70.0 7.31266 19.0011 0 
247 1 0.46 70.0 7.76609 19.0148 0 
41 1 0.46 70.0 8.21678 19.0294 0 
156 1 0.46 70.0 8.66542 19.0464 0 
293 1 0.46 70.0 8.91001 18.6764 0 
259 1 0.46 70.0 9.11309 19.0685 0 
26 1 0.46 70.0 9.35823 18.7072 0 
66 1 0.46 70.0 9.56088 19.1005 0 
215 1 0.46 70.0 9.80418 18.7487 0 
224 1 0.46 70.0 10.2438 18.7899 0 
205 1 0.46 70.0 10.6804 18.8342 0 
197 1 0.46 70.0 11.0713 19.008 0 
252 1 0.46 70.0 11.5155 19.0177 0 
234 1 0.46 70.0 11.9654 19.0283 0 
50 1 0.46 70.0 12.4218 19.0317 0 
288 1 0.46 70.0 12.8809 19.0262 0 
163 1 0.46 70.0 13.3405 19.0109 0 
25 1 0.46 70.0 13.8054 18.9739 0 
172 1 0.46 70.0 14.2901 18.9364 0 
122 1 0.46 70.0 14.8067 18.9197 0 
117 1 0.46 70.0 15.4456 19.034 0 
120 1 0.46 70.0 4.62076 19.3517 0 
8 1 0.46 70.0 5.16996 19.3485 0 
74 1 0.46 70.0 5.67694 19.3575 0 
284 1 0.46 70.0 6.1575 19.3686 0 
251 1 0.46 70.0 6.61733 19.3808 0 
128 1 0.46 70.0 7.07369 19.3901 0 
198 1 0.46 70.0 7.52711 19.4001 0 
16 1 0.46 70.0 7.97757 19.4104 0 
89 1 0.46 70.0 8.42532 19.4218 0 
278 1 0.46 70.0 8.87107 19.4356 0 
161 1 0.46 70.0 9.31635 19.4551 0 
51 1 0.46 70.0 9.76344 19.485 0 
217 1 0.46 70.0 10.0129 19.1503 0 
303 1 0.46 70.0 10.4559 19.1883 0 
242 1 0.46 70.0 10.2413 19.5445 0 
69 1 0.46 70.0 10.8274 19.4042 0 
238 1 0.46 70.0 11.2752 19.4064 0 
29 1 0.46 70.0 11.7265 19.4122 0 
103 1 0.46 70.0 12.1829 19.4159 0 
167 1 0.46 70.0 12.6434 19.4155 0 
91 1 0.46 70.0 13.1105 19.4085 0 
123 1 0.46 70.0 13.5787 19.3952 0 
179 1 0.46 70.0 14.0485 19.3664 0 
43 1 0.46 70.0 14.5351 19.3508 0 
44 1 0.46 70.0 15.0503 19.3459 0 
83 1 0.46 70.0 15.8809 19.4582 0 
220 1 0.46 70.0 4.19216 19.6757 0 
132 1 0.46 70.0 4.89627 19.7702 0 
257 1 0.46 70.0 5.42905 19.7728 0 
256 1 0.46 70.0 5.91921 19.7758 0 
137 1 0.46 70.0 6.38257 19.7791 0 
68 1 0.46 70.0 6.83937 19.7831 0 
145 1 0.46 70.0 7.29308 19.7893 0 
30 1 0.46 70.0 7.74377 19.7958 0 
212 1 0.46 70.0 8.19136 19.8026 0 
80 1 0.46 70.0 8.63601 19.8103 0 
79 1 0.46 70.0 9.07841 19.8198 0 
53 1 0.46 70.0 9.52047 19.8349 0 
214 1 0.46 70.0 9.97137 19.8513 0 
302 1 0.46 70.0 10.5947 19.7984 0 
98 1 0.46 70.0 11.0429 19.7964 0 
52 1 0.46 70.0 11.4934 19.7982 0 
95 1 0.46 70.0 11.9485 19.8 0 
31 1 0.46 70.0 12.4075 19.8002 0 
245 1 0.46 70.0 12.8751 19.7968 0 
62 1 0.46 70.0 13.3471 19.7906 0 
299 1 0.46 70.0 13.8181 19.7824 0 
264 1 0.46 70.0 14.293 19.7746 0 
153 1 0.46 70.0 14.7998 19.7718 0 
22 1 0.46 70.0 15.3811 19.729 0 
